 Entering Gaussian System, Link 0=g16
 Input=gly_freq.com
 Output=gly_freq.log
 Initial command:
 /apps/gaussian/g16-c01-avx2/g16/l1.exe "/rds/general/ephemeral/tmpdir/pbs.3232635.pbs/Gau-2409037.inp" -scrdir="/rds/general/ephemeral/tmpdir/pbs.3232635.pbs/"
 Entering Link 1 = /apps/gaussian/g16-c01-avx2/g16/l1.exe PID=   2409038.
  
 Copyright (c) 1988-2019, Gaussian, Inc.  All Rights Reserved.
  
 This is part of the Gaussian(R) 16 program.  It is based on
 the Gaussian(R) 09 system (copyright 2009, Gaussian, Inc.),
 the Gaussian(R) 03 system (copyright 2003, Gaussian, Inc.),
 the Gaussian(R) 98 system (copyright 1998, Gaussian, Inc.),
 the Gaussian(R) 94 system (copyright 1995, Gaussian, Inc.),
 the Gaussian 92(TM) system (copyright 1992, Gaussian, Inc.),
 the Gaussian 90(TM) system (copyright 1990, Gaussian, Inc.),
 the Gaussian 88(TM) system (copyright 1988, Gaussian, Inc.),
 the Gaussian 86(TM) system (copyright 1986, Carnegie Mellon
 University), and the Gaussian 82(TM) system (copyright 1983,
 Carnegie Mellon University). Gaussian is a federally registered
 trademark of Gaussian, Inc.
  
 This software contains proprietary and confidential information,
 including trade secrets, belonging to Gaussian, Inc.
  
 This software is provided under written license and may be
 used, copied, transmitted, or stored only in accord with that
 written license.
  
 The following legend is applicable only to US Government
 contracts under FAR:
  
                    RESTRICTED RIGHTS LEGEND
  
 Use, reproduction and disclosure by the US Government is
 subject to restrictions as set forth in subparagraphs (a)
 and (c) of the Commercial Computer Software - Restricted
 Rights clause in FAR 52.227-19.
  
 Gaussian, Inc.
 340 Quinnipiac St., Bldg. 40, Wallingford CT 06492
  
  
 ---------------------------------------------------------------
 Warning -- This program may not be used in any manner that
 competes with the business of Gaussian, Inc. or will provide
 assistance to any competitor of Gaussian, Inc.  The licensee
 of this program is prohibited from giving any competitor of
 Gaussian, Inc. access to this program.  By using this program,
 the user acknowledges that Gaussian, Inc. is engaged in the
 business of creating and licensing software in the field of
 computational chemistry and represents and warrants to the
 licensee that it is not a competitor of Gaussian, Inc. and that
 it will not use this program in any manner prohibited above.
 ---------------------------------------------------------------
  

 Cite this work as:
 Gaussian 16, Revision C.01,
 M. J. Frisch, G. W. Trucks, H. B. Schlegel, G. E. Scuseria, 
 M. A. Robb, J. R. Cheeseman, G. Scalmani, V. Barone, 
 G. A. Petersson, H. Nakatsuji, X. Li, M. Caricato, A. V. Marenich, 
 J. Bloino, B. G. Janesko, R. Gomperts, B. Mennucci, H. P. Hratchian, 
 J. V. Ortiz, A. F. Izmaylov, J. L. Sonnenberg, D. Williams-Young, 
 F. Ding, F. Lipparini, F. Egidi, J. Goings, B. Peng, A. Petrone, 
 T. Henderson, D. Ranasinghe, V. G. Zakrzewski, J. Gao, N. Rega, 
 G. Zheng, W. Liang, M. Hada, M. Ehara, K. Toyota, R. Fukuda, 
 J. Hasegawa, M. Ishida, T. Nakajima, Y. Honda, O. Kitao, H. Nakai, 
 T. Vreven, K. Throssell, J. A. Montgomery, Jr., J. E. Peralta, 
 F. Ogliaro, M. J. Bearpark, J. J. Heyd, E. N. Brothers, K. N. Kudin, 
 V. N. Staroverov, T. A. Keith, R. Kobayashi, J. Normand, 
 K. Raghavachari, A. P. Rendell, J. C. Burant, S. S. Iyengar, 
 J. Tomasi, M. Cossi, J. M. Millam, M. Klene, C. Adamo, R. Cammi, 
 J. W. Ochterski, R. L. Martin, K. Morokuma, O. Farkas, 
 J. B. Foresman, and D. J. Fox, Gaussian, Inc., Wallingford CT, 2019.
 
 ******************************************
 Gaussian 16:  ES64L-G16RevC.01  3-Jul-2019
                15-Mar-2021 
 ******************************************
 %mem = 4gb
 %chk = gly_freq
 -----------------------------------
 #p b3lyp/6-31g* nosymm Freq=hpmodes
 -----------------------------------
 1/10=4,30=1,38=1/1,3;
 2/12=2,15=1,17=6,18=5,40=1/2;
 3/5=1,6=6,7=1,11=2,25=1,30=1,71=2,74=-5,140=1/1,2,3;
 4//1;
 5/5=2,38=5,98=1/2;
 8/6=4,10=90,11=11/1;
 11/6=1,8=1,9=11,15=111,16=1,31=1/1,2,10;
 10/6=1,31=1/2;
 6/7=2,8=2,9=2,10=2,28=1/1;
 7/8=11,10=1,25=1,30=1/1,2,3,16;
 1/10=4,30=1/3;
 99//99;
 Leave Link    1 at Mon Mar 15 12:04:48 2021, MaxMem=   536870912 cpu:               0.0 elap:               0.2
 (Enter /apps/gaussian/g16-c01-avx2/g16/l101.exe)
 --------
 Gly Freq
 --------
 Symbolic Z-matrix:
 Charge =  0 Multiplicity = 1
 C                     0.        0.5518    0. 
 O                     1.18078   0.82102   0. 
 O                    -0.97265   1.49567   0. 
 C                    -0.58118  -0.85846   0. 
 N                     0.39897  -1.92955   0. 
 H                    -0.51749   2.35907   0. 
 H                    -1.23751  -0.95364   0.87398 
 H                    -1.23751  -0.95364  -0.87398 
 H                     1.01087  -1.81922   0.80747 
 H                     1.01087  -1.81922  -0.80747 
 
 ITRead=  0  0  0  0  0  0  0  0  0  0
 MicOpt= -1 -1 -1 -1 -1 -1 -1 -1 -1 -1
 NAtoms=     10 NQM=       10 NQMF=       0 NMMI=      0 NMMIF=      0
                NMic=       0 NMicF=      0.
                    Isotopes and Nuclear Properties:
 (Nuclear quadrupole moments (NQMom) in fm**2, nuclear magnetic moments (NMagM)
  in nuclear magnetons)

  Atom         1           2           3           4           5           6           7           8           9          10
 IAtWgt=          12          16          16          12          14           1           1           1           1           1
 AtmWgt=  12.0000000  15.9949146  15.9949146  12.0000000  14.0030740   1.0078250   1.0078250   1.0078250   1.0078250   1.0078250
 NucSpn=           0           0           0           0           2           1           1           1           1           1
 AtZEff=  -0.0000000  -0.0000000  -0.0000000  -0.0000000  -0.0000000  -0.0000000  -0.0000000  -0.0000000  -0.0000000  -0.0000000
 NQMom=    0.0000000   0.0000000   0.0000000   0.0000000   2.0440000   0.0000000   0.0000000   0.0000000   0.0000000   0.0000000
 NMagM=    0.0000000   0.0000000   0.0000000   0.0000000   0.4037610   2.7928460   2.7928460   2.7928460   2.7928460   2.7928460
 AtZNuc=   6.0000000   8.0000000   8.0000000   6.0000000   7.0000000   1.0000000   1.0000000   1.0000000   1.0000000   1.0000000
 Leave Link  101 at Mon Mar 15 12:04:48 2021, MaxMem=   536870912 cpu:               0.1 elap:               0.1
 (Enter /apps/gaussian/g16-c01-avx2/g16/l103.exe)

 GradGradGradGradGradGradGradGradGradGradGradGradGradGradGradGradGradGrad
 Berny optimization.
 Initialization pass.
 Trust Radius=3.00D-01 FncErr=1.00D-07 GrdErr=1.00D-07 EigMax=2.50D+02 EigMin=1.00D-04
 Number of steps in this run=      2 maximum allowed number of steps=      2.
 GradGradGradGradGradGradGradGradGradGradGradGradGradGradGradGradGradGrad

 Leave Link  103 at Mon Mar 15 12:04:49 2021, MaxMem=   536870912 cpu:               0.0 elap:               0.1
 (Enter /apps/gaussian/g16-c01-avx2/g16/l202.exe)
                          Input orientation:                          
 ---------------------------------------------------------------------
 Center     Atomic      Atomic             Coordinates (Angstroms)
 Number     Number       Type             X           Y           Z
 ---------------------------------------------------------------------
      1          6           0        0.000000    0.551804    0.000000
      2          8           0        1.180783    0.821015    0.000000
      3          8           0       -0.972651    1.495666    0.000000
      4          6           0       -0.581176   -0.858463    0.000000
      5          7           0        0.398966   -1.929551    0.000000
      6          1           0       -0.517488    2.359068    0.000000
      7          1           0       -1.237505   -0.953635    0.873976
      8          1           0       -1.237505   -0.953635   -0.873976
      9          1           0        1.010868   -1.819215    0.807466
     10          1           0        1.010868   -1.819215   -0.807466
 ---------------------------------------------------------------------
                    Distance matrix (angstroms):
                    1          2          3          4          5
     1  C    0.000000
     2  O    1.211083   0.000000
     3  O    1.355332   2.256642   0.000000
     4  C    1.525326   2.434162   2.386457   0.000000
     5  N    2.513224   2.859519   3.689640   1.451864   0.000000
     6  H    1.879893   2.291229   0.976031   3.218161   4.385446
     7  H    2.135790   3.124313   2.614012   1.097114   2.096255
     8  H    2.135790   3.124313   2.614012   1.097114   2.096255
     9  H    2.701034   2.766168   3.946490   2.027227   1.019117
    10  H    2.701034   2.766168   3.946490   2.027227   1.019117
                    6          7          8          9         10
     6  H    0.000000
     7  H    3.500894   0.000000
     8  H    3.500894   1.747952   0.000000
     9  H    4.521717   2.410152   2.937968   0.000000
    10  H    4.521717   2.937968   2.410152   1.614932   0.000000
 Symmetry turned off by external request.
 Stoichiometry    C2H5NO2
 Framework group  CS[SG(C2HNO2),X(H4)]
 Deg. of freedom    15
 Full point group                 CS      NOp   2
 Rotational constants (GHZ):          10.3002809           3.8596611           2.8995507
 Leave Link  202 at Mon Mar 15 12:04:49 2021, MaxMem=   536870912 cpu:               0.0 elap:               0.1
 (Enter /apps/gaussian/g16-c01-avx2/g16/l301.exe)
 Standard basis: 6-31G(d) (6D, 7F)
 Ernie: Thresh=  0.10000D-02 Tol=  0.10000D-05 Strict=F.
    85 basis functions,   160 primitive gaussians,    85 cartesian basis functions
    20 alpha electrons       20 beta electrons
       nuclear repulsion energy       178.7119080778 Hartrees.
 IExCor=  402 DFT=T Ex+Corr=B3LYP ExCW=0 ScaHFX=  0.200000
 ScaDFX=  0.800000  0.720000  1.000000  0.810000 ScalE2=  1.000000  1.000000
 IRadAn=      5 IRanWt=     -1 IRanGd=            0 ICorTp=0 IEmpDi=  4
 NAtoms=   10 NActive=   10 NUniq=   10 SFac= 1.00D+00 NAtFMM=   60 NAOKFM=F Big=F
 Integral buffers will be    131072 words long.
 Raffenetti 2 integral format.
 Two-electron integral symmetry is turned off.
 Leave Link  301 at Mon Mar 15 12:04:50 2021, MaxMem=   536870912 cpu:               0.1 elap:               0.1
 (Enter /apps/gaussian/g16-c01-avx2/g16/l302.exe)
 NPDir=0 NMtPBC=     1 NCelOv=     1 NCel=       1 NClECP=     1 NCelD=      1
         NCelK=      1 NCelE2=     1 NClLst=     1 CellRange=     0.0.
 One-electron integrals computed using PRISM.
 NBasis=    85 RedAO= T EigKep=  4.08D-03  NBF=    85
 NBsUse=    85 1.00D-06 EigRej= -1.00D+00 NBFU=    85
 Precomputing XC quadrature grid using
 IXCGrd= 4 IRadAn=           5 IRanWt=          -1 IRanGd=           0 AccXCQ= 0.00D+00.
 Generated NRdTot=       0 NPtTot=           0 NUsed=           0 NTot=          32
 NSgBfM=    85    85    85    85    85 MxSgAt=    10 MxSgA2=    10.
 Leave Link  302 at Mon Mar 15 12:04:51 2021, MaxMem=   536870912 cpu:               0.2 elap:               0.2
 (Enter /apps/gaussian/g16-c01-avx2/g16/l303.exe)
 DipDrv:  MaxL=1.
 Leave Link  303 at Mon Mar 15 12:04:51 2021, MaxMem=   536870912 cpu:               0.1 elap:               0.1
 (Enter /apps/gaussian/g16-c01-avx2/g16/l401.exe)
 ExpMin= 1.61D-01 ExpMax= 5.48D+03 ExpMxC= 8.25D+02 IAcc=3 IRadAn=         5 AccDes= 0.00D+00
 Harris functional with IExCor=  402 and IRadAn=       5 diagonalized for initial guess.
 HarFok:  IExCor=  402 AccDes= 0.00D+00 IRadAn=         5 IDoV= 1 UseB2=F ITyADJ=14
 ICtDFT=  3500011 ScaDFX=  1.000000  1.000000  1.000000  1.000000
 FoFCou: FMM=F IPFlag=           0 FMFlag=      100000 FMFlg1=           0
         NFxFlg=           0 DoJE=T BraDBF=F KetDBF=T FulRan=T
         wScrn=  0.000000 ICntrl=       500 IOpCl=  0 I1Cent=   200000004 NGrid=           0
         NMat0=    1 NMatS0=      1 NMatT0=    0 NMatD0=    1 NMtDS0=    0 NMtDT0=    0
 Symmetry not used in FoFCou.
 Harris En= -284.443140183107    
 JPrj=0 DoOrth=F DoCkMO=F.
 Leave Link  401 at Mon Mar 15 12:04:53 2021, MaxMem=   536870912 cpu:               1.0 elap:               1.1
 (Enter /apps/gaussian/g16-c01-avx2/g16/l502.exe)
 Keep R1 ints in memory in canonical form, NReq=7592308.
 FoFCou: FMM=F IPFlag=           0 FMFlag=           0 FMFlg1=           0
         NFxFlg=           0 DoJE=F BraDBF=F KetDBF=F FulRan=T
         wScrn=  0.000000 ICntrl=       600 IOpCl=  0 I1Cent=           0 NGrid=           0
         NMat0=    1 NMatS0=   3655 NMatT0=    0 NMatD0=    1 NMtDS0=    0 NMtDT0=    0
 Symmetry not used in FoFCou.
 Two-electron integral symmetry not used.
 Closed shell SCF:
 Using DIIS extrapolation, IDIIS=  1040.
 NGot=   536870912 LenX=   530173481 LenY=   530165815
 Requested convergence on RMS density matrix=1.00D-08 within 128 cycles.
 Requested convergence on MAX density matrix=1.00D-06.
 Requested convergence on             energy=1.00D-06.
 No special actions if energy rises.
 Integral accuracy reduced to 1.0D-05 until final iterations.

 Cycle   1  Pass 0  IDiag  1:
 E= -284.259358448979    
 DIIS: error= 4.01D-02 at cycle   1 NSaved=   1.
 NSaved= 1 IEnMin= 1 EnMin= -284.259358448979     IErMin= 1 ErrMin= 4.01D-02
 ErrMax= 4.01D-02  0.00D+00 EMaxC= 1.00D-01 BMatC= 2.06D-01 BMatP= 2.06D-01
 IDIUse=3 WtCom= 5.99D-01 WtEn= 4.01D-01
 Coeff-Com:  0.100D+01
 Coeff-En:   0.100D+01
 Coeff:      0.100D+01
 Gap=     0.159 Goal=   None    Shift=    0.000
 GapD=    0.159 DampG=1.000 DampE=0.500 DampFc=0.5000 IDamp=-1.
 Damping current iteration by 5.00D-01
 RMSDP=1.09D-02 MaxDP=2.02D-01              OVMax= 2.39D-01

 Cycle   2  Pass 0  IDiag  1:
 E= -284.303178374352     Delta-E=       -0.043819925373 Rises=F Damp=T
 DIIS: error= 1.42D-02 at cycle   2 NSaved=   2.
 NSaved= 2 IEnMin= 2 EnMin= -284.303178374352     IErMin= 2 ErrMin= 1.42D-02
 ErrMax= 1.42D-02  0.00D+00 EMaxC= 1.00D-01 BMatC= 2.82D-02 BMatP= 2.06D-01
 IDIUse=3 WtCom= 8.58D-01 WtEn= 1.42D-01
 Coeff-Com:  0.224D+00 0.776D+00
 Coeff-En:   0.357D+00 0.643D+00
 Coeff:      0.243D+00 0.757D+00
 Gap=     0.234 Goal=   None    Shift=    0.000
 RMSDP=2.75D-03 MaxDP=4.98D-02 DE=-4.38D-02 OVMax= 1.61D-01

 Cycle   3  Pass 0  IDiag  1:
 E= -284.406673527453     Delta-E=       -0.103495153101 Rises=F Damp=F
 DIIS: error= 1.25D-02 at cycle   3 NSaved=   3.
 NSaved= 3 IEnMin= 3 EnMin= -284.406673527453     IErMin= 3 ErrMin= 1.25D-02
 ErrMax= 1.25D-02  0.00D+00 EMaxC= 1.00D-01 BMatC= 2.05D-02 BMatP= 2.82D-02
 IDIUse=3 WtCom= 8.75D-01 WtEn= 1.25D-01
 Coeff-Com:  0.107D+00 0.465D+00 0.428D+00
 Coeff-En:   0.000D+00 0.000D+00 0.100D+01
 Coeff:      0.934D-01 0.407D+00 0.500D+00
 Gap=     0.259 Goal=   None    Shift=    0.000
 RMSDP=1.86D-03 MaxDP=3.67D-02 DE=-1.03D-01 OVMax= 7.06D-02

 Cycle   4  Pass 0  IDiag  1:
 E= -284.420120217993     Delta-E=       -0.013446690540 Rises=F Damp=F
 DIIS: error= 6.60D-03 at cycle   4 NSaved=   4.
 NSaved= 4 IEnMin= 4 EnMin= -284.420120217993     IErMin= 4 ErrMin= 6.60D-03
 ErrMax= 6.60D-03  0.00D+00 EMaxC= 1.00D-01 BMatC= 4.46D-03 BMatP= 2.05D-02
 IDIUse=3 WtCom= 9.34D-01 WtEn= 6.60D-02
 Coeff-Com:  0.224D-01 0.842D-01 0.317D+00 0.577D+00
 Coeff-En:   0.000D+00 0.000D+00 0.200D+00 0.800D+00
 Coeff:      0.209D-01 0.786D-01 0.309D+00 0.591D+00
 Gap=     0.253 Goal=   None    Shift=    0.000
 RMSDP=6.53D-04 MaxDP=1.33D-02 DE=-1.34D-02 OVMax= 2.53D-02

 Cycle   5  Pass 0  IDiag  1:
 E= -284.423258963039     Delta-E=       -0.003138745046 Rises=F Damp=F
 DIIS: error= 1.48D-03 at cycle   5 NSaved=   5.
 NSaved= 5 IEnMin= 5 EnMin= -284.423258963039     IErMin= 5 ErrMin= 1.48D-03
 ErrMax= 1.48D-03  0.00D+00 EMaxC= 1.00D-01 BMatC= 2.31D-04 BMatP= 4.46D-03
 IDIUse=3 WtCom= 9.85D-01 WtEn= 1.48D-02
 Coeff-Com:  0.416D-02 0.404D-02 0.127D+00 0.322D+00 0.543D+00
 Coeff-En:   0.000D+00 0.000D+00 0.000D+00 0.000D+00 0.100D+01
 Coeff:      0.409D-02 0.398D-02 0.125D+00 0.317D+00 0.550D+00
 Gap=     0.255 Goal=   None    Shift=    0.000
 RMSDP=1.70D-04 MaxDP=2.79D-03 DE=-3.14D-03 OVMax= 4.34D-03

 Cycle   6  Pass 0  IDiag  1:
 E= -284.423446604638     Delta-E=       -0.000187641598 Rises=F Damp=F
 DIIS: error= 2.44D-04 at cycle   6 NSaved=   6.
 NSaved= 6 IEnMin= 6 EnMin= -284.423446604638     IErMin= 6 ErrMin= 2.44D-04
 ErrMax= 2.44D-04  0.00D+00 EMaxC= 1.00D-01 BMatC= 9.01D-06 BMatP= 2.31D-04
 IDIUse=3 WtCom= 9.98D-01 WtEn= 2.44D-03
 Coeff-Com:  0.728D-03-0.307D-02 0.391D-01 0.105D+00 0.255D+00 0.603D+00
 Coeff-En:   0.000D+00 0.000D+00 0.000D+00 0.000D+00 0.000D+00 0.100D+01
 Coeff:      0.726D-03-0.306D-02 0.390D-01 0.105D+00 0.254D+00 0.604D+00
 Gap=     0.256 Goal=   None    Shift=    0.000
 RMSDP=3.32D-05 MaxDP=5.13D-04 DE=-1.88D-04 OVMax= 5.91D-04

 Cycle   7  Pass 0  IDiag  1:
 E= -284.423453673549     Delta-E=       -0.000007068911 Rises=F Damp=F
 DIIS: error= 6.13D-05 at cycle   7 NSaved=   7.
 NSaved= 7 IEnMin= 7 EnMin= -284.423453673549     IErMin= 7 ErrMin= 6.13D-05
 ErrMax= 6.13D-05  0.00D+00 EMaxC= 1.00D-01 BMatC= 5.93D-07 BMatP= 9.01D-06
 IDIUse=1 WtCom= 1.00D+00 WtEn= 0.00D+00
 Coeff-Com:  0.195D-03-0.183D-02 0.126D-01 0.338D-01 0.992D-01 0.300D+00
 Coeff-Com:  0.556D+00
 Coeff:      0.195D-03-0.183D-02 0.126D-01 0.338D-01 0.992D-01 0.300D+00
 Coeff:      0.556D+00
 Gap=     0.256 Goal=   None    Shift=    0.000
 RMSDP=9.60D-06 MaxDP=1.35D-04 DE=-7.07D-06 OVMax= 1.67D-04

 Initial convergence to 1.0D-05 achieved.  Increase integral accuracy.
 Cycle   8  Pass 1  IDiag  1:
 E= -284.423455766625     Delta-E=       -0.000002093076 Rises=F Damp=F
 DIIS: error= 1.23D-05 at cycle   1 NSaved=   1.
 NSaved= 1 IEnMin= 1 EnMin= -284.423455766625     IErMin= 1 ErrMin= 1.23D-05
 ErrMax= 1.23D-05  0.00D+00 EMaxC= 1.00D-01 BMatC= 2.28D-08 BMatP= 2.28D-08
 IDIUse=1 WtCom= 1.00D+00 WtEn= 0.00D+00
 Coeff-Com:  0.100D+01
 Coeff:      0.100D+01
 Gap=     0.256 Goal=   None    Shift=    0.000
 RMSDP=9.60D-06 MaxDP=1.35D-04 DE=-2.09D-06 OVMax= 6.90D-05

 Cycle   9  Pass 1  IDiag  1:
 E= -284.423455745376     Delta-E=        0.000000021249 Rises=F Damp=F
 DIIS: error= 1.77D-05 at cycle   2 NSaved=   2.
 NSaved= 2 IEnMin= 1 EnMin= -284.423455766625     IErMin= 1 ErrMin= 1.23D-05
 ErrMax= 1.77D-05  0.00D+00 EMaxC= 1.00D-01 BMatC= 5.16D-08 BMatP= 2.28D-08
 IDIUse=1 WtCom= 1.00D+00 WtEn= 0.00D+00
 Coeff-Com:  0.603D+00 0.397D+00
 Coeff:      0.603D+00 0.397D+00
 Gap=     0.256 Goal=   None    Shift=    0.000
 RMSDP=2.17D-06 MaxDP=3.98D-05 DE= 2.12D-08 OVMax= 6.41D-05

 Cycle  10  Pass 1  IDiag  1:
 E= -284.423455784146     Delta-E=       -0.000000038771 Rises=F Damp=F
 DIIS: error= 3.46D-06 at cycle   3 NSaved=   3.
 NSaved= 3 IEnMin= 3 EnMin= -284.423455784146     IErMin= 3 ErrMin= 3.46D-06
 ErrMax= 3.46D-06  0.00D+00 EMaxC= 1.00D-01 BMatC= 1.59D-09 BMatP= 2.28D-08
 IDIUse=1 WtCom= 1.00D+00 WtEn= 0.00D+00
 Coeff-Com:  0.329D+00 0.242D+00 0.429D+00
 Coeff:      0.329D+00 0.242D+00 0.429D+00
 Gap=     0.256 Goal=   None    Shift=    0.000
 RMSDP=4.58D-07 MaxDP=1.01D-05 DE=-3.88D-08 OVMax= 1.57D-05

 Cycle  11  Pass 1  IDiag  1:
 E= -284.423455785267     Delta-E=       -0.000000001121 Rises=F Damp=F
 DIIS: error= 8.78D-07 at cycle   4 NSaved=   4.
 NSaved= 4 IEnMin= 4 EnMin= -284.423455785267     IErMin= 4 ErrMin= 8.78D-07
 ErrMax= 8.78D-07  0.00D+00 EMaxC= 1.00D-01 BMatC= 1.35D-10 BMatP= 1.59D-09
 IDIUse=1 WtCom= 1.00D+00 WtEn= 0.00D+00
 Coeff-Com:  0.724D-01 0.646D-01 0.240D+00 0.623D+00
 Coeff:      0.724D-01 0.646D-01 0.240D+00 0.623D+00
 Gap=     0.256 Goal=   None    Shift=    0.000
 RMSDP=1.16D-07 MaxDP=3.38D-06 DE=-1.12D-09 OVMax= 4.65D-06

 Cycle  12  Pass 1  IDiag  1:
 E= -284.423455785369     Delta-E=       -0.000000000102 Rises=F Damp=F
 DIIS: error= 2.77D-07 at cycle   5 NSaved=   5.
 NSaved= 5 IEnMin= 5 EnMin= -284.423455785369     IErMin= 5 ErrMin= 2.77D-07
 ErrMax= 2.77D-07  0.00D+00 EMaxC= 1.00D-01 BMatC= 7.38D-12 BMatP= 1.35D-10
 IDIUse=1 WtCom= 1.00D+00 WtEn= 0.00D+00
 Coeff-Com: -0.432D-02 0.155D-02 0.407D-01 0.239D+00 0.723D+00
 Coeff:     -0.432D-02 0.155D-02 0.407D-01 0.239D+00 0.723D+00
 Gap=     0.256 Goal=   None    Shift=    0.000
 RMSDP=3.94D-08 MaxDP=5.95D-07 DE=-1.02D-10 OVMax= 7.98D-07

 Cycle  13  Pass 1  IDiag  1:
 E= -284.423455785374     Delta-E=       -0.000000000006 Rises=F Damp=F
 DIIS: error= 1.15D-07 at cycle   6 NSaved=   6.
 NSaved= 6 IEnMin= 6 EnMin= -284.423455785374     IErMin= 6 ErrMin= 1.15D-07
 ErrMax= 1.15D-07  0.00D+00 EMaxC= 1.00D-01 BMatC= 1.77D-12 BMatP= 7.38D-12
 IDIUse=1 WtCom= 1.00D+00 WtEn= 0.00D+00
 Coeff-Com: -0.988D-02-0.542D-02-0.171D-02 0.794D-01 0.414D+00 0.523D+00
 Coeff:     -0.988D-02-0.542D-02-0.171D-02 0.794D-01 0.414D+00 0.523D+00
 Gap=     0.256 Goal=   None    Shift=    0.000
 RMSDP=1.33D-08 MaxDP=2.12D-07 DE=-5.51D-12 OVMax= 2.66D-07

 Cycle  14  Pass 1  IDiag  1:
 E= -284.423455785376     Delta-E=       -0.000000000002 Rises=F Damp=F
 DIIS: error= 1.92D-08 at cycle   7 NSaved=   7.
 NSaved= 7 IEnMin= 7 EnMin= -284.423455785376     IErMin= 7 ErrMin= 1.92D-08
 ErrMax= 1.92D-08  0.00D+00 EMaxC= 1.00D-01 BMatC= 5.25D-14 BMatP= 1.77D-12
 IDIUse=1 WtCom= 1.00D+00 WtEn= 0.00D+00
 Coeff-Com: -0.353D-02-0.199D-02-0.355D-02 0.209D-01 0.122D+00 0.208D+00
 Coeff-Com:  0.657D+00
 Coeff:     -0.353D-02-0.199D-02-0.355D-02 0.209D-01 0.122D+00 0.208D+00
 Coeff:      0.657D+00
 Gap=     0.256 Goal=   None    Shift=    0.000
 RMSDP=2.74D-09 MaxDP=3.76D-08 DE=-1.71D-12 OVMax= 5.36D-08

 SCF Done:  E(RB3LYP) =  -284.423455785     A.U. after   14 cycles
            NFock= 14  Conv=0.27D-08     -V/T= 2.0089
 KE= 2.819217873351D+02 PE=-1.023656180288D+03 EE= 2.785990290897D+02
 Leave Link  502 at Mon Mar 15 12:05:05 2021, MaxMem=   536870912 cpu:              11.0 elap:              11.7
 (Enter /apps/gaussian/g16-c01-avx2/g16/l801.exe)
 DoSCS=F DFT=T ScalE2(SS,OS)=  1.000000  1.000000
 Range of M.O.s used for correlation:     1    85
 NBasis=    85 NAE=    20 NBE=    20 NFC=     0 NFV=     0
 NROrb=     85 NOA=    20 NOB=    20 NVA=    65 NVB=    65
 Leave Link  801 at Mon Mar 15 12:05:06 2021, MaxMem=   536870912 cpu:               0.1 elap:               0.1
 (Enter /apps/gaussian/g16-c01-avx2/g16/l1101.exe)
 Using compressed storage, NAtomX=    10.
 Will process     11 centers per pass.
 Leave Link 1101 at Mon Mar 15 12:05:07 2021, MaxMem=   536870912 cpu:               0.1 elap:               0.1
 (Enter /apps/gaussian/g16-c01-avx2/g16/l1102.exe)
 Symmetrizing basis deriv contribution to polar:
 IMax=3 JMax=2 DiffMx= 0.00D+00
 Leave Link 1102 at Mon Mar 15 12:05:07 2021, MaxMem=   536870912 cpu:               0.1 elap:               0.1
 (Enter /apps/gaussian/g16-c01-avx2/g16/l1110.exe)
 Forming Gx(P) for the SCF density, NAtomX=    10.
 Integral derivatives from FoFJK, PRISM(SPDF).
 Do as many integral derivatives as possible in FoFJK.
 G2DrvN: MDV=     536869746.
 G2DrvN: will do    11 centers at a time, making    1 passes.
 Calling FoFCou, ICntrl=  3107 FMM=F I1Cent=   0 AccDes= 0.00D+00.
 FoFJK:  IHMeth= 1 ICntrl=    3107 DoSepK=F KAlg= 0 I1Cent=           0 FoldK=F
 IRaf=         0 NMat=       1 IRICut=       1 DoRegI=T DoRafI=F ISym2E= 0 IDoP0=0 IntGTp=1.
 FoFCou: FMM=F IPFlag=           0 FMFlag=      100000 FMFlg1=           0
         NFxFlg=           0 DoJE=F BraDBF=F KetDBF=F FulRan=T
         wScrn=  0.000000 ICntrl=      3107 IOpCl=  0 I1Cent=           0 NGrid=           0
         NMat0=    1 NMatS0=      1 NMatT0=    0 NMatD0=    1 NMtDS0=    0 NMtDT0=    0
 Symmetry not used in FoFCou.
 End of G2Drv F.D. properties file   721 does not exist.
 End of G2Drv F.D. properties file   722 does not exist.
 End of G2Drv F.D. properties file   788 does not exist.
 Leave Link 1110 at Mon Mar 15 12:05:25 2021, MaxMem=   536870912 cpu:              17.3 elap:              17.3
 (Enter /apps/gaussian/g16-c01-avx2/g16/l1002.exe)
 Minotr:  Closed shell wavefunction.
          IDoAtm=1111111111
          Direct CPHF calculation.
          Differentiating once with respect to electric field.
                with respect to dipole field.
          Differentiating once with respect to nuclear coordinates.
          Requested convergence is 1.0D-08 RMS, and 1.0D-07 maximum.
          Secondary convergence is 1.0D-12 RMS, and 1.0D-12 maximum.
          NewPWx=T KeepS1=F KeepF1=F KeepIn=T MapXYZ=F SortEE=F KeepMc=T.
         2960 words used for storage of precomputed grid.
 Keep R1 ints in memory in canonical form, NReq=7598533.
 FoFCou: FMM=F IPFlag=           0 FMFlag=           0 FMFlg1=           0
         NFxFlg=           0 DoJE=F BraDBF=F KetDBF=F FulRan=T
         wScrn=  0.000000 ICntrl=       600 IOpCl=  0 I1Cent=           0 NGrid=           0
         NMat0=    1 NMatS0=   3655 NMatT0=    0 NMatD0=    1 NMtDS0=    0 NMtDT0=    0
 Symmetry not used in FoFCou.
 Two-electron integral symmetry not used.
          MDV=     536870912 using IRadAn=       1.
          Solving linear equations simultaneously, MaxMat=       0.
          There are    33 degrees of freedom in the 1st order CPHF.  IDoFFX=6 NUNeed=     3.
     30 vectors produced by pass  0 Test12= 3.94D-15 3.03D-09 XBig12= 2.96D+01 3.55D+00.
 AX will form    30 AO Fock derivatives at one time.
     30 vectors produced by pass  1 Test12= 3.94D-15 3.03D-09 XBig12= 1.10D+01 1.04D+00.
     30 vectors produced by pass  2 Test12= 3.94D-15 3.03D-09 XBig12= 8.40D-02 5.33D-02.
     30 vectors produced by pass  3 Test12= 3.94D-15 3.03D-09 XBig12= 4.78D-04 4.17D-03.
     30 vectors produced by pass  4 Test12= 3.94D-15 3.03D-09 XBig12= 9.11D-07 1.89D-04.
     18 vectors produced by pass  5 Test12= 3.94D-15 3.03D-09 XBig12= 6.93D-10 4.92D-06.
      3 vectors produced by pass  6 Test12= 3.94D-15 3.03D-09 XBig12= 5.07D-13 1.11D-07.
      1 vectors produced by pass  7 Test12= 3.94D-15 3.03D-09 XBig12= 3.43D-16 4.08D-09.
 InvSVY:  IOpt=1 It=  1 EMax= 4.44D-15
 Solved reduced A of dimension   172 with    33 vectors.
 FullF1:  Do perturbations      1 to       3.
 Isotropic polarizability for W=    0.000000       33.04 Bohr**3.
 End of Minotr F.D. properties file   721 does not exist.
 End of Minotr F.D. properties file   722 does not exist.
 End of Minotr F.D. properties file   788 does not exist.
 Leave Link 1002 at Mon Mar 15 12:05:40 2021, MaxMem=   536870912 cpu:              14.3 elap:              14.5
 (Enter /apps/gaussian/g16-c01-avx2/g16/l601.exe)
 Copying SCF densities to generalized density rwf, IOpCl= 0 IROHF=0.

 **********************************************************************

            Population analysis using the SCF Density.

 **********************************************************************

 Alpha  occ. eigenvalues --  -19.20161 -19.14603 -14.32182 -10.32234 -10.22941
 Alpha  occ. eigenvalues --   -1.10961  -1.02060  -0.89156  -0.72103  -0.60411
 Alpha  occ. eigenvalues --   -0.51044  -0.50008  -0.48600  -0.44451  -0.42929
 Alpha  occ. eigenvalues --   -0.40087  -0.37528  -0.32477  -0.28520  -0.24934
 Alpha virt. eigenvalues --    0.00625   0.07059   0.08333   0.13360   0.14133
 Alpha virt. eigenvalues --    0.18979   0.22627   0.23209   0.30391   0.36209
 Alpha virt. eigenvalues --    0.53338   0.53827   0.55608   0.62001   0.63231
 Alpha virt. eigenvalues --    0.66747   0.71725   0.74822   0.77468   0.78362
 Alpha virt. eigenvalues --    0.83803   0.86970   0.87251   0.91232   0.91356
 Alpha virt. eigenvalues --    0.93789   0.95235   0.97066   1.06631   1.07227
 Alpha virt. eigenvalues --    1.10787   1.27680   1.36824   1.39677   1.44685
 Alpha virt. eigenvalues --    1.52889   1.54897   1.65183   1.69540   1.77322
 Alpha virt. eigenvalues --    1.77913   1.80077   1.88130   1.91108   1.98464
 Alpha virt. eigenvalues --    2.01642   2.06916   2.08056   2.15527   2.27626
 Alpha virt. eigenvalues --    2.37083   2.38717   2.45248   2.47632   2.59689
 Alpha virt. eigenvalues --    2.64624   2.72648   2.86677   2.97430   3.08669
 Alpha virt. eigenvalues --    3.70870   3.88263   4.05306   4.20583   4.47162
          Condensed to atoms (all electrons):
               1          2          3          4          5          6
     1  C    4.464884   0.597584   0.235717   0.288739  -0.050521  -0.001106
     2  O    0.597584   8.019471  -0.088463  -0.084555  -0.007333   0.012001
     3  O    0.235717  -0.088463   8.275733  -0.085985   0.002737   0.209918
     4  C    0.288739  -0.084555  -0.085985   5.115926   0.356010   0.009109
     5  N   -0.050521  -0.007333   0.002737   0.356010   6.810035  -0.000273
     6  H   -0.001106   0.012001   0.209918   0.009109  -0.000273   0.361359
     7  H   -0.037502   0.000687   0.004648   0.365288  -0.033783  -0.000510
     8  H   -0.037502   0.000687   0.004648   0.365288  -0.033783  -0.000510
     9  H   -0.000834   0.004922   0.000174  -0.049048   0.320362  -0.000018
    10  H   -0.000834   0.004922   0.000174  -0.049048   0.320362  -0.000018
               7          8          9         10
     1  C   -0.037502  -0.037502  -0.000834  -0.000834
     2  O    0.000687   0.000687   0.004922   0.004922
     3  O    0.004648   0.004648   0.000174   0.000174
     4  C    0.365288   0.365288  -0.049048  -0.049048
     5  N   -0.033783  -0.033783   0.320362   0.320362
     6  H   -0.000510  -0.000510  -0.000018  -0.000018
     7  H    0.540877  -0.025870  -0.004179   0.006156
     8  H   -0.025870   0.540877   0.006156  -0.004179
     9  H   -0.004179   0.006156   0.447836  -0.032856
    10  H    0.006156  -0.004179  -0.032856   0.447836
 Mulliken charges:
               1
     1  C    0.541373
     2  O   -0.459922
     3  O   -0.559303
     4  C   -0.231724
     5  N   -0.683812
     6  H    0.410046
     7  H    0.184187
     8  H    0.184187
     9  H    0.307484
    10  H    0.307484
 Sum of Mulliken charges =  -0.00000
 Mulliken charges with hydrogens summed into heavy atoms:
               1
     1  C    0.541373
     2  O   -0.459922
     3  O   -0.149256
     4  C    0.136651
     5  N   -0.068845
 APT charges:
               1
     1  C    1.000010
     2  O   -0.696316
     3  O   -0.693454
     4  C    0.264858
     5  N   -0.438121
     6  H    0.271306
     7  H   -0.002511
     8  H   -0.002511
     9  H    0.148369
    10  H    0.148369
 Sum of APT charges =  -0.00000
 APT charges with hydrogens summed into heavy atoms:
               1
     1  C    1.000010
     2  O   -0.696316
     3  O   -0.422147
     4  C    0.259836
     5  N   -0.141383
 Electronic spatial extent (au):  <R**2>=            421.6888
 Charge=             -0.0000 electrons
 Dipole moment (field-independent basis, Debye):
    X=             -0.6447    Y=              1.0854    Z=             -0.0000  Tot=              1.2624
 Quadrupole moment (field-independent basis, Debye-Ang):
   XX=            -31.8744   YY=            -29.6537   ZZ=            -26.9136
   XY=             -2.4711   XZ=              0.0000   YZ=              0.0000
 Traceless Quadrupole moment (field-independent basis, Debye-Ang):
   XX=             -2.3938   YY=             -0.1731   ZZ=              2.5670
   XY=             -2.4711   XZ=              0.0000   YZ=              0.0000
 Octapole moment (field-independent basis, Debye-Ang**2):
  XXX=              1.3703  YYY=             41.5139  ZZZ=             -0.0000  XYY=              1.8637
  XXY=             -7.0441  XXZ=             -0.0000  XZZ=              1.5376  YZZ=             -0.9580
  YYZ=             -0.0000  XYZ=             -0.0000
 Hexadecapole moment (field-independent basis, Debye-Ang**3):
 XXXX=           -142.2431 YYYY=           -329.0540 ZZZZ=            -32.8453 XXXY=             13.7473
 XXXZ=              0.0000 YYYX=              2.5136 YYYZ=              0.0000 ZZZX=              0.0000
 ZZZY=              0.0000 XXYY=            -75.4144 XXZZ=            -25.9357 YYZZ=            -55.1098
 XXYZ=              0.0000 YYXZ=              0.0000 ZZXY=              3.7595
 N-N= 1.787119080778D+02 E-N=-1.023656182276D+03  KE= 2.819217873351D+02
  Exact polarizability:      36.447      -2.280      37.499       0.000      -0.000      25.182
 Approx polarizability:      58.891      -2.237      45.823      -0.000      -0.000      35.620
 No NMR shielding tensors so no spin-rotation constants.
 Leave Link  601 at Mon Mar 15 12:05:41 2021, MaxMem=   536870912 cpu:               0.1 elap:               0.1
 (Enter /apps/gaussian/g16-c01-avx2/g16/l701.exe)
 ... and contract with generalized density number  0.
 Compute integral second derivatives.
 Leave Link  701 at Mon Mar 15 12:05:41 2021, MaxMem=   536870912 cpu:               0.1 elap:               0.1
 (Enter /apps/gaussian/g16-c01-avx2/g16/l702.exe)
 L702 exits ... SP integral derivatives will be done elsewhere.
 Leave Link  702 at Mon Mar 15 12:05:42 2021, MaxMem=   536870912 cpu:               0.1 elap:               0.1
 (Enter /apps/gaussian/g16-c01-avx2/g16/l703.exe)
 Integral derivatives from FoFJK, PRISM(SPDF).
 Compute integral second derivatives, UseDBF=F ICtDFT=           0.
 Calling FoFJK, ICntrl=    100127 FMM=F ISym2X=0 I1Cent= 0 IOpClX= 0 NMat=1 NMatS=1 NMatT=0.
 FoFJK:  IHMeth= 1 ICntrl=  100127 DoSepK=F KAlg= 0 I1Cent=           0 FoldK=F
 IRaf=         0 NMat=       1 IRICut=       1 DoRegI=T DoRafI=F ISym2E= 0 IDoP0=0 IntGTp=1.
 FoFCou: FMM=F IPFlag=           0 FMFlag=      100000 FMFlg1=         800
         NFxFlg=           0 DoJE=F BraDBF=F KetDBF=F FulRan=T
         wScrn=  0.000000 ICntrl=    100127 IOpCl=  0 I1Cent=           0 NGrid=           0
         NMat0=    1 NMatS0=      1 NMatT0=    0 NMatD0=    1 NMtDS0=    0 NMtDT0=    0
 Symmetry not used in FoFCou.
 Leave Link  703 at Mon Mar 15 12:06:10 2021, MaxMem=   536870912 cpu:              27.5 elap:              27.5
 (Enter /apps/gaussian/g16-c01-avx2/g16/l716.exe)
 Dipole        =-2.53633641D-01 4.27010292D-01-7.99369758D-14
 Polarizability= 3.64468958D+01-2.28028370D+00 3.74989809D+01
                 1.73090332D-11-7.36526835D-12 2.51821805D+01
 Full mass-weighted force constant matrix:
 Low frequencies ---   -3.4938   -2.5931   -2.0511    0.0012    0.0013    0.0015
 Low frequencies ---   63.5792  235.1147  259.3160
 Diagonal vibrational polarizability:
        6.0278161      18.7314551      74.9684129
 Harmonic frequencies (cm**-1), IR intensities (KM/Mole), Raman scattering
 activities (A**4/AMU), depolarization ratios for plane and unpolarized
 incident light, reduced masses (AMU), force constants (mDyne/A),
 and normal coordinates:
                           1         2         3         4         5
                           A         A         A         A         A
       Frequencies ---    63.5772  235.1146  259.3160  462.7797  511.8394
    Reduced masses ---     1.9309    1.2485    4.6703    4.8141    1.5774
   Force constants ---     0.0046    0.0407    0.1850    0.6074    0.2435
    IR Intensities ---     6.0031   51.9580    9.7775   32.6601   32.5758
 Coord Atom Element:
   1     1     6         -0.00000   0.00000   0.14726  -0.13553  -0.00000
   2     1     6         -0.00000   0.00000   0.05515   0.03877  -0.00000
   3     1     6         -0.03128  -0.04644   0.00000  -0.00000   0.21332
   1     2     8          0.00000   0.00000   0.08699  -0.15607  -0.00000
   2     2     8         -0.00000   0.00000   0.31213   0.10891   0.00000
   3     2     8         -0.11176   0.01513  -0.00000   0.00000  -0.06089
   1     3     8          0.00000  -0.00000  -0.06443   0.08388   0.00000
   2     3     8         -0.00000  -0.00000  -0.14494   0.31427   0.00000
   3     3     8          0.13930   0.04437  -0.00000   0.00000  -0.01621
   1     4     6         -0.00000   0.00000   0.11073   0.06790   0.00000
   2     4     6         -0.00000   0.00000   0.04909  -0.19133  -0.00000
   3     4     6         -0.15578  -0.08330   0.00000  -0.00000   0.02481
   1     5     7          0.00000  -0.00000  -0.21126   0.08088   0.00000
   2     5     7          0.00000  -0.00000  -0.23189  -0.26625  -0.00000
   3     5     7          0.11355   0.09107  -0.00000   0.00000  -0.01556
   1     6     1          0.00000  -0.00000  -0.27024   0.50962   0.00000
   2     6     1         -0.00000  -0.00000  -0.03814   0.09477   0.00000
   3     6     1          0.14770   0.14025  -0.00000   0.00000  -0.67365
   1     7     1         -0.25206  -0.09486   0.07549   0.07826  -0.33269
   2     7     1         -0.00148   0.06447   0.18571  -0.28568  -0.21627
   3     7     1         -0.34884  -0.14389  -0.01086  -0.00359  -0.25309
   1     8     1          0.25206   0.09486   0.07549   0.07826   0.33269
   2     8     1          0.00148  -0.06447   0.18571  -0.28568   0.21627
   3     8     1         -0.34884  -0.14389   0.01086   0.00359  -0.25309
   1     9     1         -0.33375   0.37543  -0.18762   0.08062   0.11752
   2     9     1         -0.11018   0.48851  -0.50297  -0.36189   0.03139
   3     9     1          0.38121  -0.25869   0.01722   0.01295  -0.10783
   1    10     1          0.33375  -0.37543  -0.18762   0.08062  -0.11752
   2    10     1          0.11018  -0.48851  -0.50297  -0.36189  -0.03139
   3    10     1          0.38121  -0.25869  -0.01722  -0.01295  -0.10783
                           6         7         8         9        10
                           A         A         A         A         A
       Frequencies ---   636.8280  677.0851  833.0539  930.2120  960.6016
    Reduced masses ---     4.2358    1.3617    3.1152    1.6045    1.8107
   Force constants ---     1.0121    0.3678    1.2738    0.8180    0.9844
    IR Intensities ---     9.2788  105.6294   64.9592    3.4301  175.9304
 Coord Atom Element:
   1     1     6          0.01088  -0.00000  -0.11313  -0.00000   0.02930
   2     1     6         -0.16322  -0.00000  -0.11620  -0.00000   0.00954
   3     1     6         -0.00000   0.10984  -0.00000   0.17266   0.00000
   1     2     8         -0.06936  -0.00000  -0.18541  -0.00000   0.04456
   2     2     8          0.25727   0.00000  -0.02903  -0.00000   0.01014
   3     2     8          0.00000  -0.05866   0.00000  -0.04032  -0.00000
   1     3     8          0.23560   0.00000   0.08919   0.00000  -0.01154
   2     3     8         -0.12602  -0.00000  -0.07709  -0.00000   0.01738
   3     3     8          0.00000  -0.09768   0.00000  -0.03008  -0.00000
   1     4     6         -0.21149  -0.00000   0.22001  -0.00000  -0.02374
   2     4     6         -0.13429  -0.00000   0.19038   0.00000  -0.14053
   3     4     6         -0.00000   0.04913   0.00000  -0.14475  -0.00000
   1     5     7         -0.02401  -0.00000  -0.03477   0.00000  -0.01747
   2     5     7          0.08883   0.00000   0.10231  -0.00000   0.20144
   3     5     7          0.00000  -0.00348  -0.00000   0.00737   0.00000
   1     6     1          0.54708   0.00000   0.49287   0.00000  -0.09163
   2     6     1         -0.28611  -0.00000  -0.28743  -0.00000   0.05908
   3     6     1         -0.00000   0.91920  -0.00000   0.02532  -0.00000
   1     7     1         -0.18807  -0.18248   0.16395   0.47057  -0.00674
   2     7     1         -0.11572  -0.11847   0.23691  -0.11107  -0.27170
   3     7     1          0.01896  -0.10548  -0.03136   0.20676   0.00241
   1     8     1         -0.18807   0.18248   0.16395  -0.47057  -0.00674
   2     8     1         -0.11572   0.11847   0.23691   0.11107  -0.27170
   3     8     1         -0.01896  -0.10548   0.03136   0.20676  -0.00241
   1     9     1         -0.04354   0.05028  -0.04151  -0.21650  -0.12123
   2     9     1          0.37127  -0.03907  -0.40349   0.36708  -0.59586
   3     9     1         -0.01934  -0.03583   0.05333   0.12192   0.13456
   1    10     1         -0.04354  -0.05028  -0.04151   0.21650  -0.12123
   2    10     1          0.37127   0.03907  -0.40349  -0.36708  -0.59586
   3    10     1          0.01934  -0.03583  -0.05333   0.12192  -0.13456
                          11        12        13        14        15
                           A         A         A         A         A
       Frequencies ---  1145.0093 1181.7367 1195.2527 1329.3561 1404.2429
    Reduced masses ---     3.1050    2.4022    1.2478    1.4884    1.1980
   Force constants ---     2.3984    1.9765    1.0503    1.5497    1.3919
    IR Intensities ---   114.6390  167.4213    1.0008   11.5100    0.3167
 Coord Atom Element:
   1     1     6          0.05527  -0.07160   0.00000  -0.04856  -0.00000
   2     1     6         -0.15264   0.16852  -0.00000   0.13670   0.00000
   3     1     6         -0.00000   0.00000   0.10642   0.00000   0.01990
   1     2     8          0.06435  -0.07108   0.00000   0.06525   0.00000
   2     2     8          0.01587  -0.02533   0.00000  -0.01118  -0.00000
   3     2     8          0.00000  -0.00000  -0.01787  -0.00000  -0.00253
   1     3     8         -0.15433   0.14534  -0.00000  -0.04505  -0.00000
   2     3     8          0.10560  -0.07058   0.00000  -0.05830  -0.00000
   3     3     8         -0.00000  -0.00000  -0.01285  -0.00000  -0.00213
   1     4     6          0.21221   0.15113  -0.00000  -0.02566   0.00000
   2     4     6         -0.15271  -0.07872   0.00000   0.08958  -0.00000
   3     4     6          0.00000  -0.00000  -0.09289  -0.00000   0.08322
   1     5     7         -0.17195  -0.13090   0.00000  -0.01064  -0.00000
   2     5     7          0.07941   0.02389   0.00000  -0.02017   0.00000
   3     5     7         -0.00000   0.00000   0.03208   0.00000  -0.09182
   1     6     1          0.50614  -0.54296   0.00000   0.61356   0.00000
   2     6     1         -0.22664   0.27682  -0.00000  -0.37411  -0.00000
   3     6     1          0.00000  -0.00000  -0.00573   0.00000   0.00066
   1     7     1          0.19151   0.18582   0.06508   0.01662  -0.22354
   2     7     1         -0.03413  -0.36417   0.57674  -0.46778   0.44827
   3     7     1         -0.00258  -0.00807   0.02804  -0.02979  -0.02345
   1     8     1          0.19151   0.18582  -0.06508   0.01662   0.22354
   2     8     1         -0.03413  -0.36417  -0.57674  -0.46778  -0.44827
   3     8     1          0.00258   0.00807   0.02804   0.02979  -0.02345
   1     9     1         -0.12848  -0.06768   0.20583   0.03204  -0.29776
   2     9     1          0.44978   0.28628  -0.31944  -0.00085   0.38067
   3     9     1         -0.06778  -0.06704  -0.08479  -0.02735   0.08417
   1    10     1         -0.12848  -0.06768  -0.20583   0.03204   0.29776
   2    10     1          0.44978   0.28628   0.31944  -0.00085  -0.38067
   3    10     1          0.06778   0.06704  -0.08479   0.02735   0.08417
                          16        17        18        19        20
                           A         A         A         A         A
       Frequencies ---  1419.8871 1485.7382 1715.2380 1848.4654 3059.9583
    Reduced masses ---     1.9909    1.0846    1.0849    9.7456    1.0609
   Force constants ---     2.3648    1.4107    1.8806   19.6193    5.8525
    IR Intensities ---    17.9367   11.9075   19.7224  258.0262   16.9273
 Coord Atom Element:
   1     1     6         -0.06786   0.00841  -0.00772   0.68612   0.00202
   2     1     6          0.20908  -0.00513   0.00081   0.20924  -0.00028
   3     1     6         -0.00000   0.00000   0.00000   0.00000  -0.00000
   1     2     8          0.01673  -0.00787   0.00608  -0.43291  -0.00106
   2     2     8         -0.02977  -0.00165   0.00202  -0.10833  -0.00011
   3     2     8          0.00000  -0.00000   0.00000  -0.00000   0.00000
   1     3     8          0.00127  -0.00292   0.00026  -0.06681   0.00002
   2     3     8         -0.06314   0.00013  -0.00023  -0.00413   0.00069
   3     3     8         -0.00000  -0.00000   0.00000   0.00000  -0.00000
   1     4     6          0.00998  -0.08178  -0.01128  -0.03839   0.06848
   2     4     6         -0.18265   0.00854  -0.02372  -0.03306   0.01119
   3     4     6         -0.00000  -0.00000  -0.00000  -0.00000  -0.00000
   1     5     7          0.01681  -0.00480  -0.06738  -0.00859  -0.00128
   2     5     7          0.01567  -0.00151   0.02668   0.00781  -0.00094
   3     5     7          0.00000  -0.00000   0.00000   0.00000   0.00000
   1     6     1          0.36538   0.01368   0.00038   0.39965  -0.00406
   2     6     1         -0.23182  -0.00688  -0.00006  -0.22253  -0.00352
   3     6     1          0.00000   0.00000  -0.00000   0.00000   0.00000
   1     7     1         -0.03207   0.54310  -0.02414  -0.08627  -0.40868
   2     7     1          0.59218   0.02038   0.05373  -0.13119  -0.06495
   3     7     1          0.06241   0.44807   0.00000  -0.06516   0.57109
   1     8     1         -0.03207   0.54310  -0.02414  -0.08627  -0.40868
   2     8     1          0.59218   0.02038   0.05373  -0.13119  -0.06495
   3     8     1         -0.06241  -0.44807  -0.00000   0.06516  -0.57109
   1     9     1         -0.06558   0.00586   0.55488   0.05539   0.00811
   2     9     1         -0.00524  -0.01469  -0.11684   0.03168   0.00370
   3     9     1          0.05218  -0.00388  -0.41468  -0.04439   0.01095
   1    10     1         -0.06558   0.00586   0.55488   0.05539   0.00811
   2    10     1         -0.00524  -0.01469  -0.11684   0.03168   0.00370
   3    10     1         -0.05218   0.00388   0.41468   0.04439  -0.01095
                          21        22        23        24
                           A         A         A         A
       Frequencies ---  3096.5867 3473.5011 3550.2899 3678.9799
    Reduced masses ---     1.1030    1.0505    1.0912    1.0641
   Force constants ---     6.2316    7.4675    8.1040    8.4858
    IR Intensities ---    10.1579    0.2457    0.5462   38.0745
 Coord Atom Element:
   1     1     6         -0.00000  -0.00017   0.00000  -0.00052
   2     1     6         -0.00000  -0.00022   0.00000  -0.00339
   3     1     6         -0.00117  -0.00000   0.00014   0.00000
   1     2     8          0.00000   0.00029  -0.00000  -0.00063
   2     2     8          0.00000  -0.00007  -0.00000   0.00038
   3     2     8         -0.00024  -0.00000  -0.00003  -0.00000
   1     3     8         -0.00000   0.00004   0.00000  -0.02713
   2     3     8         -0.00000  -0.00012   0.00000  -0.05486
   3     3     8          0.00007   0.00000  -0.00002   0.00000
   1     4     6         -0.00000  -0.00168  -0.00000   0.00085
   2     4     6         -0.00000  -0.00271   0.00000   0.00074
   3     4     6         -0.09302  -0.00000  -0.00255   0.00000
   1     5     7          0.00000  -0.05698   0.00000   0.00004
   2     5     7         -0.00000  -0.00523   0.00000   0.00004
   3     5     7          0.00245  -0.00000  -0.08009  -0.00000
   1     6     1          0.00000   0.00048  -0.00000   0.44183
   2     6     1          0.00000   0.00055  -0.00000   0.89499
   3     6     1          0.00110  -0.00000   0.00003  -0.00000
   1     7     1         -0.42400   0.00616  -0.00861  -0.00253
   2     7     1         -0.07166   0.00244  -0.00008   0.00082
   3     7     1          0.55720  -0.01186   0.01299   0.00246
   1     8     1          0.42400   0.00616   0.00861  -0.00253
   2     8     1          0.07166   0.00244   0.00008   0.00082
   3     8     1          0.55720   0.01186   0.01299  -0.00246
   1     9     1         -0.00771   0.39780   0.42395  -0.00033
   2     9     1         -0.00796   0.05253   0.07312  -0.00042
   3     9     1         -0.01270   0.58066   0.55809  -0.00029
   1    10     1          0.00771   0.39780  -0.42395  -0.00033
   2    10     1          0.00796   0.05253  -0.07312  -0.00042
   3    10     1         -0.01270  -0.58066   0.55809   0.00029
 Harmonic frequencies (cm**-1), IR intensities (KM/Mole), Raman scattering
 activities (A**4/AMU), depolarization ratios for plane and unpolarized
 incident light, reduced masses (AMU), force constants (mDyne/A),
 and normal coordinates:
                      1                      2                      3
                      A                      A                      A
 Frequencies --     63.5772               235.1146               259.3160
 Red. masses --      1.9309                 1.2485                 4.6703
 Frc consts  --      0.0046                 0.0407                 0.1850
 IR Inten    --      6.0031                51.9580                 9.7775
  Atom  AN      X      Y      Z        X      Y      Z        X      Y      Z
     1   6    -0.00  -0.00  -0.03     0.00   0.00  -0.05     0.15   0.06   0.00
     2   8     0.00  -0.00  -0.11     0.00   0.00   0.02     0.09   0.31  -0.00
     3   8     0.00  -0.00   0.14    -0.00  -0.00   0.04    -0.06  -0.14  -0.00
     4   6    -0.00  -0.00  -0.16     0.00   0.00  -0.08     0.11   0.05   0.00
     5   7     0.00   0.00   0.11    -0.00  -0.00   0.09    -0.21  -0.23  -0.00
     6   1     0.00  -0.00   0.15    -0.00  -0.00   0.14    -0.27  -0.04  -0.00
     7   1    -0.25  -0.00  -0.35    -0.09   0.06  -0.14     0.08   0.19  -0.01
     8   1     0.25   0.00  -0.35     0.09  -0.06  -0.14     0.08   0.19   0.01
     9   1    -0.33  -0.11   0.38     0.38   0.49  -0.26    -0.19  -0.50   0.02
    10   1     0.33   0.11   0.38    -0.38  -0.49  -0.26    -0.19  -0.50  -0.02
                      4                      5                      6
                      A                      A                      A
 Frequencies --    462.7797               511.8394               636.8280
 Red. masses --      4.8141                 1.5774                 4.2358
 Frc consts  --      0.6074                 0.2435                 1.0121
 IR Inten    --     32.6601                32.5758                 9.2788
  Atom  AN      X      Y      Z        X      Y      Z        X      Y      Z
     1   6    -0.14   0.04  -0.00    -0.00  -0.00   0.21     0.01  -0.16  -0.00
     2   8    -0.16   0.11   0.00    -0.00   0.00  -0.06    -0.07   0.26   0.00
     3   8     0.08   0.31   0.00     0.00   0.00  -0.02     0.24  -0.13   0.00
     4   6     0.07  -0.19  -0.00     0.00  -0.00   0.02    -0.21  -0.13  -0.00
     5   7     0.08  -0.27   0.00     0.00  -0.00  -0.02    -0.02   0.09   0.00
     6   1     0.51   0.09   0.00     0.00   0.00  -0.67     0.55  -0.29  -0.00
     7   1     0.08  -0.29  -0.00    -0.33  -0.22  -0.25    -0.19  -0.12   0.02
     8   1     0.08  -0.29   0.00     0.33   0.22  -0.25    -0.19  -0.12  -0.02
     9   1     0.08  -0.36   0.01     0.12   0.03  -0.11    -0.04   0.37  -0.02
    10   1     0.08  -0.36  -0.01    -0.12  -0.03  -0.11    -0.04   0.37   0.02
                      7                      8                      9
                      A                      A                      A
 Frequencies --    677.0851               833.0539               930.2120
 Red. masses --      1.3617                 3.1152                 1.6045
 Frc consts  --      0.3678                 1.2738                 0.8180
 IR Inten    --    105.6294                64.9592                 3.4301
  Atom  AN      X      Y      Z        X      Y      Z        X      Y      Z
     1   6    -0.00  -0.00   0.11    -0.11  -0.12  -0.00    -0.00  -0.00   0.17
     2   8    -0.00   0.00  -0.06    -0.19  -0.03   0.00    -0.00  -0.00  -0.04
     3   8     0.00  -0.00  -0.10     0.09  -0.08   0.00     0.00  -0.00  -0.03
     4   6    -0.00  -0.00   0.05     0.22   0.19   0.00    -0.00   0.00  -0.14
     5   7    -0.00   0.00  -0.00    -0.03   0.10  -0.00     0.00  -0.00   0.01
     6   1     0.00  -0.00   0.92     0.49  -0.29  -0.00     0.00  -0.00   0.03
     7   1    -0.18  -0.12  -0.11     0.16   0.24  -0.03     0.47  -0.11   0.21
     8   1     0.18   0.12  -0.11     0.16   0.24   0.03    -0.47   0.11   0.21
     9   1     0.05  -0.04  -0.04    -0.04  -0.40   0.05    -0.22   0.37   0.12
    10   1    -0.05   0.04  -0.04    -0.04  -0.40  -0.05     0.22  -0.37   0.12
                     10                     11                     12
                      A                      A                      A
 Frequencies --    960.6016              1145.0093              1181.7367
 Red. masses --      1.8107                 3.1050                 2.4022
 Frc consts  --      0.9844                 2.3984                 1.9765
 IR Inten    --    175.9304               114.6390               167.4213
  Atom  AN      X      Y      Z        X      Y      Z        X      Y      Z
     1   6     0.03   0.01   0.00     0.06  -0.15  -0.00    -0.07   0.17   0.00
     2   8     0.04   0.01  -0.00     0.06   0.02   0.00    -0.07  -0.03  -0.00
     3   8    -0.01   0.02  -0.00    -0.15   0.11  -0.00     0.15  -0.07  -0.00
     4   6    -0.02  -0.14  -0.00     0.21  -0.15   0.00     0.15  -0.08  -0.00
     5   7    -0.02   0.20   0.00    -0.17   0.08  -0.00    -0.13   0.02   0.00
     6   1    -0.09   0.06  -0.00     0.51  -0.23   0.00    -0.54   0.28  -0.00
     7   1    -0.01  -0.27   0.00     0.19  -0.03  -0.00     0.19  -0.36  -0.01
     8   1    -0.01  -0.27  -0.00     0.19  -0.03   0.00     0.19  -0.36   0.01
     9   1    -0.12  -0.60   0.13    -0.13   0.45  -0.07    -0.07   0.29  -0.07
    10   1    -0.12  -0.60  -0.13    -0.13   0.45   0.07    -0.07   0.29   0.07
                     13                     14                     15
                      A                      A                      A
 Frequencies --   1195.2527              1329.3561              1404.2429
 Red. masses --      1.2478                 1.4884                 1.1980
 Frc consts  --      1.0503                 1.5497                 1.3919
 IR Inten    --      1.0008                11.5100                 0.3167
  Atom  AN      X      Y      Z        X      Y      Z        X      Y      Z
     1   6     0.00  -0.00   0.11    -0.05   0.14   0.00    -0.00   0.00   0.02
     2   8     0.00   0.00  -0.02     0.07  -0.01  -0.00     0.00  -0.00  -0.00
     3   8    -0.00   0.00  -0.01    -0.05  -0.06  -0.00    -0.00  -0.00  -0.00
     4   6    -0.00   0.00  -0.09    -0.03   0.09  -0.00     0.00  -0.00   0.08
     5   7     0.00   0.00   0.03    -0.01  -0.02   0.00    -0.00   0.00  -0.09
     6   1     0.00  -0.00  -0.01     0.61  -0.37   0.00     0.00  -0.00   0.00
     7   1     0.07   0.58   0.03     0.02  -0.47  -0.03    -0.22   0.45  -0.02
     8   1    -0.07  -0.58   0.03     0.02  -0.47   0.03     0.22  -0.45  -0.02
     9   1     0.21  -0.32  -0.08     0.03  -0.00  -0.03    -0.30   0.38   0.08
    10   1    -0.21   0.32  -0.08     0.03  -0.00   0.03     0.30  -0.38   0.08
                     16                     17                     18
                      A                      A                      A
 Frequencies --   1419.8871              1485.7382              1715.2380
 Red. masses --      1.9909                 1.0846                 1.0849
 Frc consts  --      2.3648                 1.4107                 1.8806
 IR Inten    --     17.9367                11.9075                19.7224
  Atom  AN      X      Y      Z        X      Y      Z        X      Y      Z
     1   6    -0.07   0.21  -0.00     0.01  -0.01   0.00    -0.01   0.00   0.00
     2   8     0.02  -0.03   0.00    -0.01  -0.00  -0.00     0.01   0.00   0.00
     3   8     0.00  -0.06  -0.00    -0.00   0.00  -0.00     0.00  -0.00   0.00
     4   6     0.01  -0.18  -0.00    -0.08   0.01  -0.00    -0.01  -0.02  -0.00
     5   7     0.02   0.02   0.00    -0.00  -0.00  -0.00    -0.07   0.03   0.00
     6   1     0.37  -0.23   0.00     0.01  -0.01   0.00     0.00  -0.00  -0.00
     7   1    -0.03   0.59   0.06     0.54   0.02   0.45    -0.02   0.05   0.00
     8   1    -0.03   0.59  -0.06     0.54   0.02  -0.45    -0.02   0.05  -0.00
     9   1    -0.07  -0.01   0.05     0.01  -0.01  -0.00     0.55  -0.12  -0.41
    10   1    -0.07  -0.01  -0.05     0.01  -0.01   0.00     0.55  -0.12   0.41
                     19                     20                     21
                      A                      A                      A
 Frequencies --   1848.4654              3059.9583              3096.5867
 Red. masses --      9.7456                 1.0609                 1.1030
 Frc consts  --     19.6193                 5.8525                 6.2316
 IR Inten    --    258.0262                16.9273                10.1579
  Atom  AN      X      Y      Z        X      Y      Z        X      Y      Z
     1   6     0.69   0.21   0.00     0.00  -0.00  -0.00    -0.00  -0.00  -0.00
     2   8    -0.43  -0.11  -0.00    -0.00  -0.00   0.00     0.00   0.00  -0.00
     3   8    -0.07  -0.00   0.00     0.00   0.00  -0.00    -0.00  -0.00   0.00
     4   6    -0.04  -0.03  -0.00     0.07   0.01  -0.00    -0.00  -0.00  -0.09
     5   7    -0.01   0.01   0.00    -0.00  -0.00   0.00     0.00  -0.00   0.00
     6   1     0.40  -0.22   0.00    -0.00  -0.00   0.00     0.00   0.00   0.00
     7   1    -0.09  -0.13  -0.07    -0.41  -0.06   0.57    -0.42  -0.07   0.56
     8   1    -0.09  -0.13   0.07    -0.41  -0.06  -0.57     0.42   0.07   0.56
     9   1     0.06   0.03  -0.04     0.01   0.00   0.01    -0.01  -0.01  -0.01
    10   1     0.06   0.03   0.04     0.01   0.00  -0.01     0.01   0.01  -0.01
                     22                     23                     24
                      A                      A                      A
 Frequencies --   3473.5011              3550.2899              3678.9799
 Red. masses --      1.0505                 1.0912                 1.0641
 Frc consts  --      7.4675                 8.1040                 8.4858
 IR Inten    --      0.2457                 0.5462                38.0745
  Atom  AN      X      Y      Z        X      Y      Z        X      Y      Z
     1   6    -0.00  -0.00  -0.00     0.00   0.00   0.00    -0.00  -0.00   0.00
     2   8     0.00  -0.00  -0.00    -0.00  -0.00  -0.00    -0.00   0.00  -0.00
     3   8     0.00  -0.00   0.00     0.00   0.00  -0.00    -0.03  -0.05   0.00
     4   6    -0.00  -0.00  -0.00    -0.00   0.00  -0.00     0.00   0.00   0.00
     5   7    -0.06  -0.01  -0.00     0.00   0.00  -0.08     0.00   0.00  -0.00
     6   1     0.00   0.00  -0.00    -0.00  -0.00   0.00     0.44   0.89  -0.00
     7   1     0.01   0.00  -0.01    -0.01  -0.00   0.01    -0.00   0.00   0.00
     8   1     0.01   0.00   0.01     0.01   0.00   0.01    -0.00   0.00  -0.00
     9   1     0.40   0.05   0.58     0.42   0.07   0.56    -0.00  -0.00  -0.00
    10   1     0.40   0.05  -0.58    -0.42  -0.07   0.56    -0.00  -0.00   0.00

 -------------------
 - Thermochemistry -
 -------------------
 Temperature   298.150 Kelvin.  Pressure   1.00000 Atm.
 Atom     1 has atomic number  6 and mass  12.00000
 Atom     2 has atomic number  8 and mass  15.99491
 Atom     3 has atomic number  8 and mass  15.99491
 Atom     4 has atomic number  6 and mass  12.00000
 Atom     5 has atomic number  7 and mass  14.00307
 Atom     6 has atomic number  1 and mass   1.00783
 Atom     7 has atomic number  1 and mass   1.00783
 Atom     8 has atomic number  1 and mass   1.00783
 Atom     9 has atomic number  1 and mass   1.00783
 Atom    10 has atomic number  1 and mass   1.00783
 Molecular mass:    75.03203 amu.
 Principal axes and moments of inertia in atomic units:
                           1         2         3
     Eigenvalues --   175.21281 467.59059 622.42099
           X           -0.18847   0.98208   0.00000
           Y            0.98208   0.18847   0.00000
           Z           -0.00000   0.00000   1.00000
 This molecule is an asymmetric top.
 Rotational symmetry number  1.
 Rotational temperatures (Kelvin)      0.49434     0.18523     0.13916
 Rotational constants (GHZ):          10.30028     3.85966     2.89955
 Zero-point vibrational energy     210271.5 (Joules/Mol)
                                   50.25610 (Kcal/Mol)
 Warning -- explicit consideration of   5 degrees of freedom as
           vibrations may cause significant error
 Vibrational temperatures:     91.47   338.28   373.10   665.84   736.42
          (Kelvin)            916.25   974.17  1198.58  1338.37  1382.09
                             1647.41  1700.26  1719.70  1912.65  2020.39
                             2042.90  2137.65  2467.84  2659.53  4402.60
                             4455.30  4997.59  5108.08  5293.23
 
 Zero-point correction=                           0.080088 (Hartree/Particle)
 Thermal correction to Energy=                    0.085689
 Thermal correction to Enthalpy=                  0.086633
 Thermal correction to Gibbs Free Energy=         0.051050
 Sum of electronic and zero-point Energies=           -284.343368
 Sum of electronic and thermal Energies=              -284.337767
 Sum of electronic and thermal Enthalpies=            -284.336822
 Sum of electronic and thermal Free Energies=         -284.372406
 
                     E (Thermal)             CV                S
                      KCal/Mol        Cal/Mol-Kelvin    Cal/Mol-Kelvin
 Total                   53.771             18.474             74.892
 Electronic               0.000              0.000              0.000
 Translational            0.889              2.981             38.862
 Rotational               0.889              2.981             25.437
 Vibrational             51.993             12.512             10.593
 Vibration     1          0.597              1.972              4.343
 Vibration     2          0.655              1.787              1.840
 Vibration     3          0.668              1.747              1.666
 Vibration     4          0.820              1.333              0.758
 Vibration     5          0.867              1.224              0.629
                       Q            Log10(Q)             Ln(Q)
 Total Bot       0.330109D-23        -23.481343        -54.067790
 Total V=0       0.227317D+14         13.356633         30.754784
 Vib (Bot)       0.159856D-35        -35.796270        -82.423958
 Vib (Bot)    1  0.324667D+01          0.511438          1.177630
 Vib (Bot)    2  0.835819D+00         -0.077888         -0.179343
 Vib (Bot)    3  0.749266D+00         -0.125364         -0.288661
 Vib (Bot)    4  0.366689D+00         -0.435702         -1.003241
 Vib (Bot)    5  0.317713D+00         -0.497965         -1.146607
 Vib (V=0)       0.110079D+02          1.041705          2.398615
 Vib (V=0)    1  0.378495D+01          0.578060          1.331032
 Vib (V=0)    2  0.147396D+01          0.168485          0.387951
 Vib (V=0)    3  0.140078D+01          0.146369          0.337027
 Vib (V=0)    4  0.112005D+01          0.049237          0.113372
 Vib (V=0)    5  0.109240D+01          0.038383          0.088380
 Electronic      0.100000D+01          0.000000          0.000000
 Translational   0.255461D+08          7.407324         17.055994
 Rotational      0.808358D+05          4.907604         11.300175
 
                                                               Gly Freq
                                                             IR Spectrum
 
     3    3  3            33                                         1   1       1 11  1   111                                       
     6    5  4            00                                         8   7       4 44  3   111     99   8    6 6   5 4     22        
     7    5  7            96                                         4   1       8 20  2   984     63   3    7 3   1 6     53     6  
     9    0  4            70                                         8   5       6 04  9   525     10   3    7 7   2 3     95     4  
 
     X    X  X            XX                                         X   X       X XX  X   XXX     XX   X    X X   X X     XX     X  
     X                                                               X   X                  XX     X    X    X     X X      X        
     X                                                               X                      XX     X    X    X     X X      X        
                                                                     X                      XX     X    X    X              X        
                                                                     X                      XX     X    X    X                       
                                                                     X                      XX     X         X                       
                                                                     X                      XX     X         X                       
                                                                     X                      XX     X         X                       
                                                                     X                      XX     X                                 
                                                                     X                      X      X                                 
                                                                     X                      X      X                                 
                                                                     X                      X      X                                 
                                                                     X                      X      X                                 
                                                                     X                             X                                 
                                                                     X                                                               
                                                                     X                                                               
                                                                     X                                                               
                                                                     X                                                               
                                                                     X                                                               
                                                                     X                                                               
 
 -------------------------------------------------------------------
 Center     Atomic                   Forces (Hartrees/Bohr)
 Number     Number              X              Y              Z
 -------------------------------------------------------------------
      1        6          -0.000000361    0.000000078    0.000000000
      2        8          -0.000000071    0.000000288    0.000000000
      3        8          -0.000000243   -0.000000085   -0.000000000
      4        6           0.000000912   -0.000000079   -0.000000000
      5        7           0.000000068    0.000000138    0.000000000
      6        1          -0.000000611   -0.000000239    0.000000000
      7        1          -0.000000182   -0.000000295    0.000000318
      8        1          -0.000000182   -0.000000295   -0.000000318
      9        1           0.000000335    0.000000245   -0.000000101
     10        1           0.000000335    0.000000245    0.000000101
 -------------------------------------------------------------------
 Cartesian Forces:  Max     0.000000912 RMS     0.000000282
 Z-matrix is all fixed cartesians, so copy forces.
 Force constants in Cartesian coordinates: 
                1             2             3             4             5 
      1  0.989400D+00
      2  0.110105D+00  0.621630D+00
      3  0.000000D+00  0.000000D+00  0.225740D+00
      4 -0.715305D+00 -0.164974D+00  0.000000D+00  0.835522D+00
      5 -0.151545D+00 -0.162315D+00  0.000000D+00  0.154548D+00  0.137149D+00
      6  0.000000D+00  0.000000D+00 -0.752780D-01  0.000000D+00  0.000000D+00
      7 -0.188172D+00  0.543757D-01  0.000000D+00 -0.913061D-01  0.492563D-01
      8  0.897710D-01 -0.218041D+00  0.000000D+00  0.320306D-01  0.258545D-01
      9  0.000000D+00  0.000000D+00 -0.633682D-01  0.000000D+00  0.000000D+00
     10 -0.872953D-01 -0.294993D-01  0.000000D+00 -0.330896D-01 -0.368974D-01
     11 -0.315439D-01 -0.154908D+00  0.000000D+00 -0.105614D-01 -0.309606D-02
     12  0.000000D+00  0.000000D+00 -0.994690D-01  0.000000D+00  0.000000D+00
     13 -0.647447D-03  0.426430D-02  0.000000D+00  0.561887D-02 -0.498033D-02
     14  0.246012D-01 -0.367053D-01  0.000000D+00  0.389570D-02  0.597926D-03
     15  0.000000D+00  0.000000D+00  0.353499D-02  0.000000D+00  0.000000D+00
     16  0.230856D-01  0.367056D-01  0.000000D+00 -0.270105D-02 -0.597656D-02
     17 -0.145279D-01 -0.505894D-01  0.000000D+00 -0.573520D-02  0.886751D-02
     18  0.000000D+00  0.000000D+00  0.526273D-02  0.000000D+00  0.000000D+00
     19 -0.114366D-01 -0.472383D-02  0.139113D-01  0.611744D-05 -0.245672D-02
     20 -0.187156D-01  0.177279D-03  0.289070D-01 -0.242730D-02 -0.461891D-02
     21  0.334755D-03 -0.122553D-02  0.170070D-02 -0.149337D-02 -0.192142D-03
     22 -0.114366D-01 -0.472383D-02 -0.139113D-01  0.611744D-05 -0.245672D-02
     23 -0.187156D-01  0.177279D-03 -0.289070D-01 -0.242730D-02 -0.461891D-02
     24 -0.334755D-03  0.122553D-02  0.170070D-02  0.149337D-02  0.192142D-03
     25  0.904016D-03 -0.764774D-03  0.557788D-03  0.624130D-03  0.254295D-03
     26  0.528543D-02  0.287423D-03  0.302041D-02 -0.217442D-02  0.108993D-02
     27 -0.145193D-02 -0.731815D-03  0.879362D-04  0.146622D-02 -0.102941D-02
     28  0.904016D-03 -0.764774D-03 -0.557788D-03  0.624130D-03  0.254295D-03
     29  0.528543D-02  0.287423D-03 -0.302041D-02 -0.217442D-02  0.108993D-02
     30  0.145193D-02  0.731815D-03  0.879362D-04 -0.146622D-02  0.102941D-02
                6             7             8             9            10 
      6  0.296759D-01
      7  0.000000D+00  0.418413D+00
      8  0.000000D+00  0.585715D-01  0.597069D+00
      9  0.291971D-01  0.000000D+00  0.000000D+00  0.393917D-01
     10  0.000000D+00  0.955128D-02  0.257647D-01  0.000000D+00  0.571219D+00
     11  0.000000D+00 -0.328288D-02 -0.301555D-01  0.000000D+00 -0.291729D-01
     12  0.265528D-01  0.000000D+00  0.000000D+00  0.107277D-01  0.000000D+00
     13  0.000000D+00  0.209326D-02 -0.194996D-02  0.000000D+00 -0.153985D+00
     14  0.000000D+00 -0.131274D-02 -0.117011D-01  0.000000D+00  0.537646D-01
     15 -0.128168D-02  0.000000D+00  0.000000D+00  0.101613D-02  0.000000D+00
     16  0.000000D+00 -0.151455D+00 -0.206256D+00  0.000000D+00 -0.339174D-02
     17  0.000000D+00 -0.157265D+00 -0.362787D+00  0.000000D+00  0.730434D-02
     18 -0.715269D-02  0.000000D+00  0.000000D+00 -0.173379D-01  0.000000D+00
     19 -0.169820D-02  0.688517D-03  0.103705D-02 -0.865861D-03 -0.133059D+00
     20 -0.398889D-02  0.145496D-02 -0.142011D-02 -0.225294D-02 -0.186338D-01
     21 -0.920284D-03 -0.561616D-03  0.350879D-03  0.246604D-03  0.123740D+00
     22  0.169820D-02  0.688517D-03  0.103705D-02  0.865861D-03 -0.133059D+00
     23  0.398889D-02  0.145496D-02 -0.142011D-02  0.225294D-02 -0.186338D-01
     24 -0.920284D-03  0.561616D-03 -0.350879D-03  0.246604D-03 -0.123740D+00
     25 -0.144886D-03 -0.250693D-03 -0.284852D-05  0.521302D-04 -0.184447D-01
     26 -0.136289D-02 -0.162631D-02  0.130112D-02 -0.292595D-03  0.230018D-01
     27  0.635919D-04  0.779833D-03 -0.789182D-03 -0.598818D-04  0.916617D-04
     28  0.144886D-03 -0.250693D-03 -0.284852D-05 -0.521302D-04 -0.184447D-01
     29  0.136289D-02 -0.162631D-02  0.130112D-02  0.292595D-03  0.230018D-01
     30  0.635919D-04 -0.779833D-03  0.789182D-03 -0.598818D-04 -0.916617D-04
               11            12            13            14            15 
     11  0.444359D+00
     12  0.000000D+00  0.594755D+00
     13  0.114977D+00  0.000000D+00  0.548834D+00
     14 -0.140838D+00  0.000000D+00 -0.857437D-01  0.250066D+00
     15  0.000000D+00 -0.106095D+00  0.000000D+00  0.000000D+00  0.665324D+00
     16  0.233574D-02  0.000000D+00 -0.119838D-04  0.169380D-02  0.000000D+00
     17  0.900233D-03  0.000000D+00 -0.809324D-04 -0.137434D-02  0.000000D+00
     18  0.000000D+00  0.443979D-02  0.000000D+00  0.000000D+00  0.560360D-03
     19 -0.148669D-01  0.121227D+00 -0.157912D-01  0.412810D-02  0.200797D-01
     20 -0.525974D-01  0.291073D-01  0.186654D-01 -0.131394D-02 -0.253719D-01
     21  0.226188D-01 -0.217589D+00 -0.236852D-03 -0.229702D-02  0.286925D-02
     22 -0.148669D-01 -0.121227D+00 -0.157912D-01  0.412810D-02 -0.200797D-01
     23 -0.525974D-01 -0.291073D-01  0.186654D-01 -0.131394D-02  0.253719D-01
     24 -0.226188D-01 -0.217589D+00  0.236852D-03  0.229702D-02  0.286925D-02
     25 -0.650893D-02 -0.237929D-01 -0.185160D+00 -0.257752D-02 -0.181351D+00
     26 -0.553326D-02  0.272134D-01 -0.319085D-01 -0.287088D-01 -0.714148D-01
     27 -0.100281D-02  0.213388D-02 -0.157276D+00 -0.278416D-01 -0.284399D+00
     28 -0.650893D-02  0.237929D-01 -0.185160D+00 -0.257752D-02  0.181351D+00
     29 -0.553326D-02 -0.272134D-01 -0.319085D-01 -0.287088D-01  0.714148D-01
     30  0.100281D-02  0.213388D-02  0.157276D+00  0.278416D-01 -0.284399D+00
               16            17            18            19            20 
     16  0.134566D+00
     17  0.171328D+00  0.404410D+00
     18  0.000000D+00  0.000000D+00  0.138816D-01
     19 -0.157149D-03 -0.403169D-03 -0.699925D-03  0.150913D+00
     20  0.228382D-04  0.507482D-03 -0.675074D-03  0.127114D-01  0.605641D-01
     21 -0.990881D-04  0.309087D-03  0.100456D-03 -0.136052D+00 -0.229863D-01
     22 -0.157149D-03 -0.403169D-03  0.699925D-03  0.125103D-01  0.248910D-02
     23  0.228382D-04  0.507482D-03  0.675074D-03  0.248910D-02  0.941978D-03
     24  0.990881D-04 -0.309087D-03  0.100456D-03 -0.154444D-01 -0.356842D-02
     25  0.110844D-03 -0.108332D-03  0.379122D-05 -0.983559D-04 -0.533491D-03
     26  0.620323D-04 -0.220847D-03 -0.196908D-03 -0.877633D-03  0.980803D-03
     27 -0.281437D-04  0.179347D-04  0.725762D-04  0.259834D-03  0.314236D-03
     28  0.110844D-03 -0.108332D-03 -0.379122D-05 -0.357547D-02  0.496653D-02
     29  0.620323D-04 -0.220847D-03  0.196908D-03  0.296262D-02 -0.322123D-02
     30  0.281437D-04 -0.179347D-04  0.725762D-04 -0.716955D-03  0.514940D-03
               21            22            23            24            25 
     21  0.232052D+00
     22  0.154444D-01  0.150913D+00
     23  0.356842D-02  0.127114D-01  0.605641D-01
     24 -0.213047D-01  0.136052D+00  0.229863D-01  0.232052D+00
     25 -0.100938D-03 -0.357547D-02  0.496653D-02  0.974846D-03  0.191580D+00
     26 -0.633231D-03  0.296262D-02 -0.322123D-02 -0.487079D-03  0.502298D-02
     27  0.575943D-03  0.716955D-03 -0.514940D-03  0.226993D-02  0.179621D+00
     28 -0.974846D-03 -0.983559D-04 -0.533491D-03  0.100938D-03  0.143098D-01
     29  0.487079D-03 -0.877633D-03  0.980803D-03  0.633231D-03  0.252088D-03
     30  0.226993D-02 -0.259834D-03 -0.314236D-03  0.575943D-03  0.241802D-01
               26            27            28            29            30 
     26  0.362925D-01
     27  0.378656D-01  0.307170D+00
     28  0.252088D-03 -0.241802D-01  0.191580D+00
     29 -0.226762D-02 -0.628802D-02  0.502298D-02  0.362925D-01
     30  0.628802D-02 -0.279149D-01 -0.179621D+00 -0.378656D-01  0.307170D+00
 Leave Link  716 at Mon Mar 15 12:06:10 2021, MaxMem=   536870912 cpu:               0.1 elap:               0.2
 (Enter /apps/gaussian/g16-c01-avx2/g16/l103.exe)

 GradGradGradGradGradGradGradGradGradGradGradGradGradGradGradGradGradGrad
 Berny optimization.
 Search for a local minimum.
 Step number   1 out of a maximum of    2
 All quantities printed in internal units (Hartrees-Bohrs-Radians)
 Second derivative matrix not updated -- analytic derivatives used.
 ITU=  0
     Eigenvalues ---    0.00054   0.00315   0.01091   0.01711   0.03547
     Eigenvalues ---    0.04000   0.05055   0.05823   0.08515   0.09448
     Eigenvalues ---    0.13772   0.14543   0.19571   0.21380   0.29205
     Eigenvalues ---    0.41883   0.53161   0.66663   0.74672   0.74941
     Eigenvalues ---    0.90799   0.99155   0.99483   1.70877
 Angle between quadratic step and forces=  72.91 degrees.
 Linear search not attempted -- first point.
 B after Tr=     0.000000   -0.000001    0.000000
         Rot=    1.000000   -0.000000    0.000000    0.000000 Ang=   0.00 deg.
 Variable       Old X    -DE/DX   Delta X   Delta X   Delta X     New X
                                 (Linear)    (Quad)   (Total)
    X1        0.00000  -0.00000   0.00000  -0.00000   0.00000   0.00000
    Y1        1.04276   0.00000   0.00000  -0.00000  -0.00000   1.04276
    Z1        0.00000   0.00000   0.00000   0.00000   0.00000   0.00000
    X2        2.23136  -0.00000   0.00000   0.00000   0.00000   2.23136
    Y2        1.55149   0.00000   0.00000  -0.00000  -0.00001   1.55149
    Z2        0.00000   0.00000   0.00000   0.00000   0.00000   0.00000
    X3       -1.83804  -0.00000   0.00000   0.00000   0.00000  -1.83804
    Y3        2.82640  -0.00000   0.00000   0.00000   0.00000   2.82640
    Z3        0.00000  -0.00000   0.00000  -0.00000  -0.00000  -0.00000
    X4       -1.09826   0.00000   0.00000  -0.00000  -0.00000  -1.09826
    Y4       -1.62226  -0.00000   0.00000  -0.00000  -0.00000  -1.62226
    Z4        0.00000  -0.00000   0.00000   0.00000   0.00000   0.00000
    X5        0.75394   0.00000   0.00000  -0.00000  -0.00000   0.75394
    Y5       -3.64632   0.00000   0.00000   0.00000   0.00000  -3.64632
    Z5        0.00000   0.00000   0.00000  -0.00000  -0.00000  -0.00000
    X6       -0.97791  -0.00000   0.00000  -0.00000  -0.00000  -0.97791
    Y6        4.45799  -0.00000   0.00000   0.00000   0.00000   4.45799
    Z6        0.00000   0.00000   0.00000  -0.00000  -0.00000  -0.00000
    X7       -2.33855  -0.00000   0.00000  -0.00000  -0.00000  -2.33855
    Y7       -1.80211  -0.00000   0.00000  -0.00000  -0.00000  -1.80211
    Z7        1.65158   0.00000   0.00000   0.00000   0.00000   1.65158
    X8       -2.33855  -0.00000   0.00000  -0.00000  -0.00000  -2.33855
    Y8       -1.80211  -0.00000   0.00000  -0.00000  -0.00000  -1.80211
    Z8       -1.65158  -0.00000   0.00000  -0.00000  -0.00000  -1.65158
    X9        1.91026   0.00000   0.00000   0.00000   0.00000   1.91026
    Y9       -3.43782   0.00000   0.00000   0.00001   0.00001  -3.43781
    Z9        1.52589  -0.00000   0.00000  -0.00000  -0.00000   1.52589
   X10        1.91026   0.00000   0.00000   0.00000   0.00000   1.91026
   Y10       -3.43782   0.00000   0.00000   0.00001   0.00001  -3.43781
   Z10       -1.52589   0.00000   0.00000   0.00000   0.00000  -1.52589
         Item               Value     Threshold  Converged?
 Maximum Force            0.000001     0.000450     YES
 RMS     Force            0.000000     0.000300     YES
 Maximum Displacement     0.000006     0.001800     YES
 RMS     Displacement     0.000002     0.001200     YES
 Predicted change in Energy=-6.269661D-13
 Optimization completed.
    -- Stationary point found.
 GradGradGradGradGradGradGradGradGradGradGradGradGradGradGradGradGradGrad

 Leave Link  103 at Mon Mar 15 12:06:11 2021, MaxMem=   536870912 cpu:               0.0 elap:               0.1
 (Enter /apps/gaussian/g16-c01-avx2/g16/l9999.exe)

 ----------------------------------------------------------------------

 Electric dipole moment (input orientation):
 (Debye = 10**-18 statcoulomb cm , SI units = C m)
                  (au)            (Debye)         (10**-30 SI)
   Tot        0.496657D+00      0.126238D+01      0.421083D+01
   x         -0.253634D+00     -0.644672D+00     -0.215040D+01
   y          0.427010D+00      0.108535D+01      0.362034D+01
   z          0.000000D+00      0.000000D+00      0.000000D+00

 Dipole polarizability, Alpha (input orientation).
 (esu units = cm**3 , SI units = C**2 m**2 J**-1)
 Alpha(0;0):
               (au)            (10**-24 esu)      (10**-40 SI)
   iso        0.330427D+02      0.489642D+01      0.544800D+01
   aniso      0.124680D+02      0.184757D+01      0.205570D+01
   xx         0.364469D+02      0.540087D+01      0.600928D+01
   yx        -0.228028D+01     -0.337903D+00     -0.375968D+00
   yy         0.374990D+02      0.555678D+01      0.618275D+01
   zx         0.000000D+00      0.000000D+00      0.000000D+00
   zy         0.000000D+00      0.000000D+00      0.000000D+00
   zz         0.251822D+02      0.373161D+01      0.415198D+01

 ----------------------------------------------------------------------

 Dipole orientation:
     6          0.45784284          0.27194742          0.89653203
     8          2.33063983          1.38434290          0.19441323
     8         -0.11770508         -0.06991393          3.36870825
     6         -1.52412451         -0.90529258         -0.83390638
     7         -1.04367442         -0.61991701         -3.52001956
     1          1.23449076          0.73325724          4.33224792
     1         -1.67648197         -2.91674011         -0.35514528
     1         -3.36334175         -0.07679158         -0.35514528
     1          0.68187951         -1.36974593         -3.93126902
     1         -0.87660942          1.25408114         -3.93126902

 Electric dipole moment (dipole orientation):
 (Debye = 10**-18 statcoulomb cm , SI units = C m)
                  (au)            (Debye)         (10**-30 SI)
   Tot        0.496657D+00      0.126238D+01      0.421083D+01
   x          0.000000D+00      0.000000D+00      0.000000D+00
   y          0.000000D+00      0.000000D+00      0.000000D+00
   z          0.496657D+00      0.126238D+01      0.421083D+01

 Dipole polarizability, Alpha (dipole orientation).
 (esu units = cm**3 , SI units = C**2 m**2 J**-1)
 Alpha(0;0):
               (au)            (10**-24 esu)      (10**-40 SI)
   iso        0.330427D+02      0.489642D+01      0.544800D+01
   aniso      0.124680D+02      0.184757D+01      0.205570D+01
   xx         0.322317D+02      0.477625D+01      0.531430D+01
   yx         0.418727D+01      0.620489D+00      0.690387D+00
   yy         0.276693D+02      0.410017D+01      0.456205D+01
   zx        -0.540767D+00     -0.801334D-01     -0.891604D-01
   zy        -0.321202D+00     -0.475973D-01     -0.529591D-01
   zz         0.392270D+02      0.581284D+01      0.646766D+01

 ----------------------------------------------------------------------
 Unable to Open any file for archive entry.
 1\1\GINC-CX2-5-4-11\Freq\RB3LYP\6-31G(d)\C2H5N1O2\DD2120\15-Mar-2021\0
 \\#p b3lyp/6-31g* nosymm Freq=hpmodes\\Gly Freq\\0,1\C,0.,0.551804,0.\
 O,1.180783,0.821015,0.\O,-0.972651,1.495666,0.\C,-0.581176,-0.858463,0
 .\N,0.398966,-1.929551,0.\H,-0.517488,2.359068,0.\H,-1.237505,-0.95363
 5,0.873976\H,-1.237505,-0.953635,-0.873976\H,1.010868,-1.819215,0.8074
 66\H,1.010868,-1.819215,-0.807466\\Version=ES64L-G16RevC.01\HF=-284.42
 34558\RMSD=2.742e-09\RMSF=2.823e-07\ZeroPoint=0.0800882\Thermal=0.0856
 892\ETot=-284.3377666\HTot=-284.3368224\GTot=-284.3724058\Dipole=-0.25
 36336,0.4270103,0.\DipoleDeriv=1.4875535,-0.2873285,0.,-0.1491915,1.27
 85871,0.,0.,0.,0.2338905,-1.0473287,0.047801,0.,-0.1985297,-0.7092088,
 0.,0.,0.,-0.3324109,-0.769817,0.4185249,0.,0.5485452,-0.9276994,0.,0.,
 0.,-0.3828441,0.277291,-0.2901386,0.,-0.1960397,0.3163677,0.,0.,0.,0.2
 00914,-0.3365982,0.0289816,0.,0.1105497,-0.7788856,0.,0.,0.,-0.1988779
 ,0.2305895,-0.1123107,0.,-0.0522193,0.2384076,0.,0.,0.,0.344922,0.0078
 173,0.0265079,0.073351,0.0197321,0.0095458,-0.005789,0.1033014,-0.0012
 868,-0.0248959,0.0078173,0.0265079,-0.073351,0.0197321,0.0095458,0.005
 789,-0.1033014,0.0012868,-0.0248959,0.0713377,0.0707272,-0.0872598,-0.
 0512894,0.2816699,-0.120712,-0.0490094,-0.0652575,0.0920991,0.0713377,
 0.0707272,0.0872598,-0.0512894,0.2816699,0.120712,0.0490094,0.0652575,
 0.0920991\Polar=36.4468958,-2.2802837,37.4989809,0.,0.,25.1821805\Quad
 rupole=-1.779748,-0.1287312,1.9084791,-1.837175,0.,0.\PG=CS [SG(C2H1N1
 O2),X(H4)]\NImag=0\\0.98939951,0.11010514,0.62163035,0.,0.,0.22574016,
 -0.71530470,-0.16497426,0.,0.83552215,-0.15154520,-0.16231520,0.,0.154
 54804,0.13714927,0.,0.,-0.07527799,0.,0.,0.02967589,-0.18817247,0.0543
 7573,0.,-0.09130614,0.04925625,0.,0.41841297,0.08977101,-0.21804144,0.
 ,0.03203056,0.02585452,0.,0.05857148,0.59706879,0.,0.,-0.06336816,0.,0
 .,0.02919709,0.,0.,0.03939166,-0.08729526,-0.02949932,0.,-0.03308964,-
 0.03689736,0.,0.00955128,0.02576471,0.,0.57121852,-0.03154386,-0.15490
 833,0.,-0.01056138,-0.00309606,0.,-0.00328288,-0.03015550,0.,-0.029172
 94,0.44435852,0.,0.,-0.09946901,0.,0.,0.02655276,0.,0.,0.01072770,0.,0
 .,0.59475454,-0.00064745,0.00426430,0.,0.00561887,-0.00498033,0.,0.002
 09326,-0.00194996,0.,-0.15398550,0.11497701,0.,0.54883421,0.02460123,-
 0.03670535,0.,0.00389570,0.00059793,0.,-0.00131274,-0.01170112,0.,0.05
 376461,-0.14083753,0.,-0.08574375,0.25006591,0.,0.,0.00353499,0.,0.,-0
 .00128168,0.,0.,0.00101613,0.,0.,-0.10609462,0.,0.,0.66532354,0.023085
 63,0.03670562,0.,-0.00270105,-0.00597656,0.,-0.15145456,-0.20625619,0.
 ,-0.00339174,0.00233574,0.,-0.00001198,0.00169380,0.,0.13456631,-0.014
 52792,-0.05058944,0.,-0.00573520,0.00886751,0.,-0.15726513,-0.36278727
 ,0.,0.00730434,0.00090023,0.,-0.00008093,-0.00137434,0.,0.17132785,0.4
 0441004,0.,0.,0.00526273,0.,0.,-0.00715269,0.,0.,-0.01733787,0.,0.,0.0
 0443979,0.,0.,0.00056036,0.,0.,0.01388162,-0.01143665,-0.00472383,0.01
 391129,0.00000612,-0.00245672,-0.00169820,0.00068852,0.00103705,-0.000
 86586,-0.13305915,-0.01486691,0.12122679,-0.01579116,0.00412810,0.0200
 7974,-0.00015715,-0.00040317,-0.00069992,0.15091296,-0.01871563,0.0001
 7728,0.02890704,-0.00242730,-0.00461891,-0.00398889,0.00145496,-0.0014
 2011,-0.00225294,-0.01863377,-0.05259741,0.02910735,0.01866538,-0.0013
 1394,-0.02537190,0.00002284,0.00050748,-0.00067507,0.01271140,0.060564
 05,0.00033475,-0.00122553,0.00170070,-0.00149337,-0.00019214,-0.000920
 28,-0.00056162,0.00035088,0.00024660,0.12373991,0.02261878,-0.21758946
 ,-0.00023685,-0.00229702,0.00286925,-0.00009909,0.00030909,0.00010046,
 -0.13605234,-0.02298632,0.23205151,-0.01143665,-0.00472383,-0.01391129
 ,0.00000612,-0.00245672,0.00169820,0.00068852,0.00103705,0.00086586,-0
 .13305915,-0.01486691,-0.12122679,-0.01579116,0.00412810,-0.02007974,-
 0.00015715,-0.00040317,0.00069992,0.01251034,0.00248910,0.01544438,0.1
 5091296,-0.01871563,0.00017728,-0.02890704,-0.00242730,-0.00461891,0.0
 0398889,0.00145496,-0.00142011,0.00225294,-0.01863377,-0.05259741,-0.0
 2910735,0.01866538,-0.00131394,0.02537190,0.00002284,0.00050748,0.0006
 7507,0.00248910,0.00094198,0.00356842,0.01271140,0.06056405,-0.0003347
 5,0.00122553,0.00170070,0.00149337,0.00019214,-0.00092028,0.00056162,-
 0.00035088,0.00024660,-0.12373991,-0.02261878,-0.21758946,0.00023685,0
 .00229702,0.00286925,0.00009909,-0.00030909,0.00010046,-0.01544438,-0.
 00356842,-0.02130465,0.13605234,0.02298632,0.23205151,0.00090402,-0.00
 076477,0.00055779,0.00062413,0.00025429,-0.00014489,-0.00025069,-0.000
 00285,0.00005213,-0.01844468,-0.00650893,-0.02379286,-0.18515955,-0.00
 257752,-0.18135148,0.00011084,-0.00010833,0.00000379,-0.00009836,-0.00
 053349,-0.00010094,-0.00357547,0.00496653,0.00097485,0.19157997,0.0052
 8543,0.00028742,0.00302041,-0.00217442,0.00108993,-0.00136289,-0.00162
 631,0.00130112,-0.00029259,0.02300176,-0.00553326,0.02721344,-0.031908
 54,-0.02870881,-0.07141479,0.00006203,-0.00022085,-0.00019691,-0.00087
 763,0.00098080,-0.00063323,0.00296262,-0.00322123,-0.00048708,0.005022
 98,0.03629248,-0.00145193,-0.00073182,0.00008794,0.00146622,-0.0010294
 1,0.00006359,0.00077983,-0.00078918,-0.00005988,0.00009166,-0.00100281
 ,0.00213388,-0.15727564,-0.02784162,-0.28439862,-0.00002814,0.00001793
 ,0.00007258,0.00025983,0.00031424,0.00057594,0.00071695,-0.00051494,0.
 00226993,0.17962141,0.03786562,0.30716952,0.00090402,-0.00076477,-0.00
 055779,0.00062413,0.00025429,0.00014489,-0.00025069,-0.00000285,-0.000
 05213,-0.01844468,-0.00650893,0.02379286,-0.18515955,-0.00257752,0.181
 35148,0.00011084,-0.00010833,-0.00000379,-0.00357547,0.00496653,-0.000
 97485,-0.00009836,-0.00053349,0.00010094,0.01430979,0.00025209,-0.0241
 8020,0.19157997,0.00528543,0.00028742,-0.00302041,-0.00217442,0.001089
 93,0.00136289,-0.00162631,0.00130112,0.00029259,0.02300176,-0.00553326
 ,-0.02721344,-0.03190854,-0.02870881,0.07141479,0.00006203,-0.00022085
 ,0.00019691,0.00296262,-0.00322123,0.00048708,-0.00087763,0.00098080,0
 .00063323,0.00025209,-0.00226762,-0.00628802,0.00502298,0.03629248,0.0
 0145193,0.00073182,0.00008794,-0.00146622,0.00102941,0.00006359,-0.000
 77983,0.00078918,-0.00005988,-0.00009166,0.00100281,0.00213388,0.15727
 564,0.02784162,-0.28439862,0.00002814,-0.00001793,0.00007258,-0.000716
 95,0.00051494,0.00226993,-0.00025983,-0.00031424,0.00057594,0.02418020
 ,0.00628802,-0.02791487,-0.17962141,-0.03786562,0.30716952\\0.00000036
 ,-0.00000008,0.,0.00000007,-0.00000029,0.,0.00000024,0.00000009,0.,-0.
 00000091,0.00000008,0.,-0.00000007,-0.00000014,0.,0.00000061,0.0000002
 4,0.,0.00000018,0.00000030,-0.00000032,0.00000018,0.00000030,0.0000003
 2,-0.00000033,-0.00000024,0.00000010,-0.00000033,-0.00000024,-0.000000
 10\\\@
 The archive entry for this job was punched.


 THE WORLD IS MADE UP OF THE WILLS, THE WON'TS, AND THE CANT'S:
 THE WILLS DO EVERYTHING,
 THE WON'TS DO NOTHING,
 THE CAN'TS CAN'T DO ANYTHING.

                               -- FROM WALT DISNEY'S "BLACK HOLE"
 Job cpu time:       0 days  0 hours  1 minutes 12.8 seconds.
 Elapsed time:       0 days  0 hours  1 minutes 14.2 seconds.
 File lengths (MBytes):  RWF=     88 Int=      0 D2E=      0 Chk=      2 Scr=      2
 Normal termination of Gaussian 16 at Mon Mar 15 12:06:11 2021.
