 Entering Gaussian System, Link 0=g16
 Input=irc_aim.com
 Output=irc_aim.log
 Initial command:
 /apps/gaussian/g16-c01-avx2/g16/l1.exe "/var/tmp/pbs.3363232.pbs/Gau-3474793.inp" -scrdir="/var/tmp/pbs.3363232.pbs/"
 Entering Link 1 = /apps/gaussian/g16-c01-avx2/g16/l1.exe PID=   3474794.
  
 Copyright (c) 1988-2019, Gaussian, Inc.  All Rights Reserved.
  
 This is part of the Gaussian(R) 16 program.  It is based on
 the Gaussian(R) 09 system (copyright 2009, Gaussian, Inc.),
 the Gaussian(R) 03 system (copyright 2003, Gaussian, Inc.),
 the Gaussian(R) 98 system (copyright 1998, Gaussian, Inc.),
 the Gaussian(R) 94 system (copyright 1995, Gaussian, Inc.),
 the Gaussian 92(TM) system (copyright 1992, Gaussian, Inc.),
 the Gaussian 90(TM) system (copyright 1990, Gaussian, Inc.),
 the Gaussian 88(TM) system (copyright 1988, Gaussian, Inc.),
 the Gaussian 86(TM) system (copyright 1986, Carnegie Mellon
 University), and the Gaussian 82(TM) system (copyright 1983,
 Carnegie Mellon University). Gaussian is a federally registered
 trademark of Gaussian, Inc.
  
 This software contains proprietary and confidential information,
 including trade secrets, belonging to Gaussian, Inc.
  
 This software is provided under written license and may be
 used, copied, transmitted, or stored only in accord with that
 written license.
  
 The following legend is applicable only to US Government
 contracts under FAR:
  
                    RESTRICTED RIGHTS LEGEND
  
 Use, reproduction and disclosure by the US Government is
 subject to restrictions as set forth in subparagraphs (a)
 and (c) of the Commercial Computer Software - Restricted
 Rights clause in FAR 52.227-19.
  
 Gaussian, Inc.
 340 Quinnipiac St., Bldg. 40, Wallingford CT 06492
  
  
 ---------------------------------------------------------------
 Warning -- This program may not be used in any manner that
 competes with the business of Gaussian, Inc. or will provide
 assistance to any competitor of Gaussian, Inc.  The licensee
 of this program is prohibited from giving any competitor of
 Gaussian, Inc. access to this program.  By using this program,
 the user acknowledges that Gaussian, Inc. is engaged in the
 business of creating and licensing software in the field of
 computational chemistry and represents and warrants to the
 licensee that it is not a competitor of Gaussian, Inc. and that
 it will not use this program in any manner prohibited above.
 ---------------------------------------------------------------
  

 Cite this work as:
 Gaussian 16, Revision C.01,
 M. J. Frisch, G. W. Trucks, H. B. Schlegel, G. E. Scuseria, 
 M. A. Robb, J. R. Cheeseman, G. Scalmani, V. Barone, 
 G. A. Petersson, H. Nakatsuji, X. Li, M. Caricato, A. V. Marenich, 
 J. Bloino, B. G. Janesko, R. Gomperts, B. Mennucci, H. P. Hratchian, 
 J. V. Ortiz, A. F. Izmaylov, J. L. Sonnenberg, D. Williams-Young, 
 F. Ding, F. Lipparini, F. Egidi, J. Goings, B. Peng, A. Petrone, 
 T. Henderson, D. Ranasinghe, V. G. Zakrzewski, J. Gao, N. Rega, 
 G. Zheng, W. Liang, M. Hada, M. Ehara, K. Toyota, R. Fukuda, 
 J. Hasegawa, M. Ishida, T. Nakajima, Y. Honda, O. Kitao, H. Nakai, 
 T. Vreven, K. Throssell, J. A. Montgomery, Jr., J. E. Peralta, 
 F. Ogliaro, M. J. Bearpark, J. J. Heyd, E. N. Brothers, K. N. Kudin, 
 V. N. Staroverov, T. A. Keith, R. Kobayashi, J. Normand, 
 K. Raghavachari, A. P. Rendell, J. C. Burant, S. S. Iyengar, 
 J. Tomasi, M. Cossi, J. M. Millam, M. Klene, C. Adamo, R. Cammi, 
 J. W. Ochterski, R. L. Martin, K. Morokuma, O. Farkas, 
 J. B. Foresman, and D. J. Fox, Gaussian, Inc., Wallingford CT, 2019.
 
 ******************************************
 Gaussian 16:  ES64L-G16RevC.01  3-Jul-2019
                15-Apr-2021 
 ******************************************
 %mem=8gb
 %chk=nbos
 ----------------------------
 #p apfd/cc-pvdz pop=savenbos
 ----------------------------
 1/38=1,172=1/1;
 2/12=2,17=6,18=5,40=1/2;
 3/5=16,11=2,25=1,30=1,74=-44/1,2,3;
 4//1;
 5/5=2,38=5/2;
 6/7=2,8=2,9=2,10=2,28=1,40=1,73=1/1,7;
 99/5=1,9=1/99;
 Leave Link    1 at Thu Apr 15 17:58:34 2021, MaxMem=  1073741824 cpu:               0.0 elap:               0.0
 (Enter /apps/gaussian/g16-c01-avx2/g16/l101.exe)
 -------------------------------------
 NBOs -> Freq -> IRC + AIM computation
 -------------------------------------
 Symbolic Z-matrix:
 Charge =  0 Multiplicity = 1
 C                    -0.74239   0.31187   0. 
 C                     0.81391   0.31187   0. 
 H                     1.36028   1.2461    0. 
 H                     1.36028  -0.62236   0. 
 C                    -1.57396  -0.79925   0. 
 H                    -1.24353  -1.82677   0. 
 C                    -1.57396   1.42299   0. 
 H                    -1.24353   2.45051   0. 
 C                    -3.0226    0.98187   0. 
 H                    -3.87422   1.64275   0. 
 C                    -3.0226   -0.35813   0. 
 H                    -3.87422  -1.019     0. 
 
 ITRead=  0  0  0  0  0  0  0  0  0  0  0  0
 MicOpt= -1 -1 -1 -1 -1 -1 -1 -1 -1 -1 -1 -1
 NAtoms=     12 NQM=       12 NQMF=       0 NMMI=      0 NMMIF=      0
                NMic=       0 NMicF=      0.
                    Isotopes and Nuclear Properties:
 (Nuclear quadrupole moments (NQMom) in fm**2, nuclear magnetic moments (NMagM)
  in nuclear magnetons)

  Atom         1           2           3           4           5           6           7           8           9          10
 IAtWgt=          12          12           1           1          12           1          12           1          12           1
 AtmWgt=  12.0000000  12.0000000   1.0078250   1.0078250  12.0000000   1.0078250  12.0000000   1.0078250  12.0000000   1.0078250
 NucSpn=           0           0           1           1           0           1           0           1           0           1
 AtZEff=  -0.0000000  -0.0000000  -0.0000000  -0.0000000  -0.0000000  -0.0000000  -0.0000000  -0.0000000  -0.0000000  -0.0000000
 NQMom=    0.0000000   0.0000000   0.0000000   0.0000000   0.0000000   0.0000000   0.0000000   0.0000000   0.0000000   0.0000000
 NMagM=    0.0000000   0.0000000   2.7928460   2.7928460   0.0000000   2.7928460   0.0000000   2.7928460   0.0000000   2.7928460
 AtZNuc=   6.0000000   6.0000000   1.0000000   1.0000000   6.0000000   1.0000000   6.0000000   1.0000000   6.0000000   1.0000000

  Atom        11          12
 IAtWgt=          12           1
 AtmWgt=  12.0000000   1.0078250
 NucSpn=           0           1
 AtZEff=  -0.0000000  -0.0000000
 NQMom=    0.0000000   0.0000000
 NMagM=    0.0000000   2.7928460
 AtZNuc=   6.0000000   1.0000000
 Leave Link  101 at Thu Apr 15 17:58:35 2021, MaxMem=  1073741824 cpu:               0.1 elap:               0.1
 (Enter /apps/gaussian/g16-c01-avx2/g16/l202.exe)
                          Input orientation:                          
 ---------------------------------------------------------------------
 Center     Atomic      Atomic             Coordinates (Angstroms)
 Number     Number       Type             X           Y           Z
 ---------------------------------------------------------------------
      1          6           0       -0.742389    0.311871    0.000000
      2          6           0        0.813910    0.311871    0.000000
      3          1           0        1.360280    1.246100    0.000000
      4          1           0        1.360280   -0.622358    0.000000
      5          6           0       -1.573960   -0.799247    0.000000
      6          1           0       -1.243530   -1.826770    0.000000
      7          6           0       -1.573960    1.422990    0.000000
      8          1           0       -1.243530    2.450510    0.000000
      9          6           0       -3.022600    0.981874    0.000000
     10          1           0       -3.874220    1.642750    0.000000
     11          6           0       -3.022600   -0.358132    0.000000
     12          1           0       -3.874220   -1.019000    0.000000
 ---------------------------------------------------------------------
                    Distance matrix (angstroms):
                    1          2          3          4          5
     1  C    0.000000
     2  C    1.556299   0.000000
     3  H    2.300870   1.082268   0.000000
     4  H    2.300870   1.082268   1.868458   0.000000
     5  C    1.387838   2.633725   3.576760   2.939567   0.000000
     6  H    2.196572   2.967633   4.027699   2.868873   1.079346
     7  C    1.387839   2.633725   2.939567   3.576760   2.222237
     8  H    2.196570   2.967631   2.868873   4.027697   3.266513
     9  C    2.376608   3.894575   4.390837   4.667247   2.295855
    10  H    3.402882   4.873377   5.249507   5.703569   3.354779
    11  C    2.376608   3.894575   4.667247   4.390837   1.514312
    12  H    3.402879   4.873375   5.703566   5.249506   2.310733
                    6          7          8          9         10
     6  H    0.000000
     7  C    3.266516   0.000000
     8  H    4.277280   1.079343   0.000000
     9  C    3.324691   1.514312   2.306942   0.000000
    10  H    4.354090   2.310734   2.751910   1.077967   0.000000
    11  C    2.306943   2.295856   3.324689   1.340006   2.174577
    12  H    2.751912   3.354774   4.354082   2.174570   2.661750
                   11         12
    11  C    0.000000
    12  H    1.077962   0.000000
 Stoichiometry    C6H6
 Framework group  CS[SG(C6H6)]
 Deg. of freedom    21
 Full point group                 CS      NOp   2
 Largest Abelian subgroup         CS      NOp   2
 Largest concise Abelian subgroup C1      NOp   1
                         Standard orientation:                         
 ---------------------------------------------------------------------
 Center     Atomic      Atomic             Coordinates (Angstroms)
 Number     Number       Type             X           Y           Z
 ---------------------------------------------------------------------
      1          6           0       -0.739624   -0.000000    0.000000
      2          6           0       -2.295923   -0.000000    0.000000
      3          1           0       -2.842293    0.934229   -0.000000
      4          1           0       -2.842293   -0.934229    0.000000
      5          6           0        0.091947   -1.111118    0.000000
      6          1           0       -0.238483   -2.138641    0.000000
      7          6           0        0.091947    1.111119   -0.000000
      8          1           0       -0.238483    2.138639   -0.000000
      9          6           0        1.540587    0.670003   -0.000000
     10          1           0        2.392207    1.330879   -0.000000
     11          6           0        1.540587   -0.670003    0.000000
     12          1           0        2.392207   -1.330871    0.000000
 ---------------------------------------------------------------------
 Rotational constants (GHZ):           9.1966911           3.2627484           2.4083338
 Leave Link  202 at Thu Apr 15 17:58:35 2021, MaxMem=  1073741824 cpu:               0.0 elap:               0.0
 (Enter /apps/gaussian/g16-c01-avx2/g16/l301.exe)
 Standard basis: CC-pVDZ (5D, 7F)
 Ernie: Thresh=  0.10000D-02 Tol=  0.10000D-05 Strict=F.
 Ernie:  12 primitive shells out of 162 were deleted.
 There are    90 symmetry adapted cartesian basis functions of A'  symmetry.
 There are    30 symmetry adapted cartesian basis functions of A"  symmetry.
 There are    84 symmetry adapted basis functions of A'  symmetry.
 There are    30 symmetry adapted basis functions of A"  symmetry.
   114 basis functions,   240 primitive gaussians,   120 cartesian basis functions
    21 alpha electrons       21 beta electrons
       nuclear repulsion energy       196.2841043902 Hartrees.
 IExCor= 3731 DFT=T Ex+Corr=APFD ExCW=0 ScaHFX=  0.229450
 ScaDFX=  1.000000  1.000000  1.000000  1.000000 ScalE2=  1.000000  1.000000
 IRadAn=      5 IRanWt=     -1 IRanGd=            0 ICorTp=0 IEmpDi=211
 NAtoms=   12 NActive=   12 NUniq=   12 SFac= 1.00D+00 NAtFMM=   60 NAOKFM=F Big=F
 Integral buffers will be    131072 words long.
 Raffenetti 2 integral format.
 Two-electron integral symmetry is turned on.
 R6APFD:  NTU= -4 IXU= 1 FactS= 1.050
 R6Disp:  Petersson-Frisch Dispersion energy=       -0.0043783192 Hartrees.
 Nuclear repulsion after empirical dispersion term =      196.2797260710 Hartrees.
 Leave Link  301 at Thu Apr 15 17:58:35 2021, MaxMem=  1073741824 cpu:               0.0 elap:               0.0
 (Enter /apps/gaussian/g16-c01-avx2/g16/l302.exe)
 NPDir=0 NMtPBC=     1 NCelOv=     1 NCel=       1 NClECP=     1 NCelD=      1
         NCelK=      1 NCelE2=     1 NClLst=     1 CellRange=     0.0.
 One-electron integrals computed using PRISM.
 One-electron integral symmetry used in STVInt
 NBasis=   114 RedAO= T EigKep=  8.62D-04  NBF=    84    30
 NBsUse=   114 1.00D-06 EigRej= -1.00D+00 NBFU=    84    30
 Precomputing XC quadrature grid using
 IXCGrd= 4 IRadAn=           5 IRanWt=          -1 IRanGd=           0 AccXCQ= 0.00D+00.
 Generated NRdTot=       0 NPtTot=           0 NUsed=           0 NTot=          32
 NSgBfM=   120   120   120   120   120 MxSgAt=    12 MxSgA2=    12.
 Leave Link  302 at Thu Apr 15 17:58:36 2021, MaxMem=  1073741824 cpu:               0.2 elap:               0.2
 (Enter /apps/gaussian/g16-c01-avx2/g16/l303.exe)
 DipDrv:  MaxL=1.
 Leave Link  303 at Thu Apr 15 17:58:37 2021, MaxMem=  1073741824 cpu:               0.0 elap:               0.0
 (Enter /apps/gaussian/g16-c01-avx2/g16/l401.exe)
 ExpMin= 1.22D-01 ExpMax= 6.67D+03 ExpMxC= 2.28D+02 IAcc=3 IRadAn=         5 AccDes= 0.00D+00
 Harris functional with IExCor= 3731 and IRadAn=       5 diagonalized for initial guess.
 HarFok:  IExCor= 3731 AccDes= 0.00D+00 IRadAn=         5 IDoV= 1 UseB2=F ITyADJ=14
 ICtDFT=  3500011 ScaDFX=  1.000000  1.000000  1.000000  1.000000
 FoFCou: FMM=F IPFlag=           0 FMFlag=      100000 FMFlg1=           0
         NFxFlg=           0 DoJE=T BraDBF=F KetDBF=T FulRan=T
         wScrn=  0.000000 ICntrl=       500 IOpCl=  0 I1Cent=   200000004 NGrid=           0
         NMat0=    1 NMatS0=      1 NMatT0=    0 NMatD0=    1 NMtDS0=    0 NMtDT0=    0
 Petite list used in FoFCou.
 Harris En= -224.447975436105    
 JPrj=0 DoOrth=F DoCkMO=F.
 Initial guess orbital symmetries:
       Occupied  (A') (A') (A') (A') (A') (A') (A') (A') (A') (A')
                 (A') (A') (A') (A') (A') (A") (A') (A') (A') (A")
                 (A")
       Virtual   (A") (A") (A") (A') (A') (A') (A') (A') (A') (A')
                 (A') (A') (A') (A') (A') (A') (A') (A") (A') (A')
                 (A") (A') (A') (A") (A') (A") (A") (A') (A') (A')
                 (A") (A') (A') (A') (A') (A") (A') (A') (A") (A')
                 (A") (A') (A") (A') (A") (A') (A") (A') (A') (A')
                 (A') (A") (A') (A') (A') (A") (A') (A') (A') (A")
                 (A") (A') (A') (A") (A') (A") (A') (A") (A") (A')
                 (A') (A') (A") (A') (A') (A') (A") (A') (A') (A")
                 (A") (A') (A') (A') (A') (A') (A') (A') (A') (A')
                 (A') (A') (A')
 The electronic state of the initial guess is 1-A'.
 Leave Link  401 at Thu Apr 15 17:58:39 2021, MaxMem=  1073741824 cpu:               1.3 elap:               1.3
 (Enter /apps/gaussian/g16-c01-avx2/g16/l502.exe)
 Keep R1 ints in memory in symmetry-blocked form, NReq=32822481.
 FoFCou: FMM=F IPFlag=           0 FMFlag=           0 FMFlg1=           0
         NFxFlg=           0 DoJE=F BraDBF=F KetDBF=F FulRan=T
         wScrn=  0.000000 ICntrl=       600 IOpCl=  0 I1Cent=           0 NGrid=           0
         NMat0=    1 NMatS0=   6555 NMatT0=    0 NMatD0=    1 NMtDS0=    0 NMtDT0=    0
 Petite list used in FoFCou.
 Closed shell SCF:
 Using DIIS extrapolation, IDIIS=  1040.
 NGot=  1073741824 LenX=  1062376652 LenY=  1062361811
 Requested convergence on RMS density matrix=1.00D-08 within 128 cycles.
 Requested convergence on MAX density matrix=1.00D-06.
 Requested convergence on             energy=1.00D-06.
 No special actions if energy rises.
 Integral accuracy reduced to 1.0D-05 until final iterations.

 Cycle   1  Pass 0  IDiag  1:
 E= -231.838358737978    
 DIIS: error= 3.70D-02 at cycle   1 NSaved=   1.
 NSaved= 1 IEnMin= 1 EnMin= -231.838358737978     IErMin= 1 ErrMin= 3.70D-02
 ErrMax= 3.70D-02  0.00D+00 EMaxC= 1.00D-01 BMatC= 1.09D-01 BMatP= 1.09D-01
 IDIUse=3 WtCom= 6.30D-01 WtEn= 3.70D-01
 Coeff-Com:  0.100D+01
 Coeff-En:   0.100D+01
 Coeff:      0.100D+01
 Gap=    -0.083 Goal=   None    Shift=    0.000
 GapD=   -0.083 DampG=0.250 DampE=0.500 DampFc=0.2500 IDamp=-1.
 Damping current iteration by 2.50D-01
 RMSDP=9.63D-03 MaxDP=3.72D-01              OVMax= 7.39D-01

 Cycle   2  Pass 0  IDiag  1:
 E= -231.853983536599     Delta-E=       -0.015624798622 Rises=F Damp=T
 DIIS: error= 2.02D-02 at cycle   2 NSaved=   2.
 NSaved= 2 IEnMin= 2 EnMin= -231.853983536599     IErMin= 2 ErrMin= 2.02D-02
 ErrMax= 2.02D-02  0.00D+00 EMaxC= 1.00D-01 BMatC= 3.81D-02 BMatP= 1.09D-01
 IDIUse=3 WtCom= 7.98D-01 WtEn= 2.02D-01
 Coeff-Com: -0.133D+00 0.113D+01
 Coeff-En:   0.372D+00 0.628D+00
 Coeff:     -0.312D-01 0.103D+01
 Gap=    -0.021 Goal=   None    Shift=    0.000
 RMSDP=2.76D-03 MaxDP=7.62D-02 DE=-1.56D-02 OVMax= 1.00D+00

 Cycle   3  Pass 0  IDiag  1:
 E= -231.890425063506     Delta-E=       -0.036441526907 Rises=F Damp=F
 DIIS: error= 2.15D-02 at cycle   3 NSaved=   3.
 NSaved= 3 IEnMin= 3 EnMin= -231.890425063506     IErMin= 2 ErrMin= 2.02D-02
 ErrMax= 2.15D-02  0.00D+00 EMaxC= 1.00D-01 BMatC= 2.31D-02 BMatP= 3.81D-02
 IDIUse=3 WtCom= 7.85D-01 WtEn= 2.15D-01
 Coeff-Com: -0.423D+00 0.685D+00 0.738D+00
 Coeff-En:   0.000D+00 0.000D+00 0.100D+01
 Coeff:     -0.332D+00 0.538D+00 0.795D+00
 Gap=     0.031 Goal=   None    Shift=    0.000
 RMSDP=1.53D-03 MaxDP=5.09D-02 DE=-3.64D-02 OVMax= 1.17D-01

 Cycle   4  Pass 0  IDiag  1:
 E= -231.919768735265     Delta-E=       -0.029343671759 Rises=F Damp=F
 DIIS: error= 5.29D-03 at cycle   4 NSaved=   4.
 NSaved= 4 IEnMin= 4 EnMin= -231.919768735265     IErMin= 4 ErrMin= 5.29D-03
 ErrMax= 5.29D-03  0.00D+00 EMaxC= 1.00D-01 BMatC= 2.77D-03 BMatP= 2.31D-02
 IDIUse=3 WtCom= 9.47D-01 WtEn= 5.29D-02
 Coeff-Com: -0.163D+00 0.226D+00 0.365D+00 0.572D+00
 Coeff-En:   0.000D+00 0.000D+00 0.000D+00 0.100D+01
 Coeff:     -0.154D+00 0.214D+00 0.345D+00 0.595D+00
 Gap=     0.054 Goal=   None    Shift=    0.000
 RMSDP=5.70D-04 MaxDP=1.33D-02 DE=-2.93D-02 OVMax= 2.83D-02

 Cycle   5  Pass 0  IDiag  1:
 E= -231.921463756113     Delta-E=       -0.001695020848 Rises=F Damp=F
 DIIS: error= 4.21D-03 at cycle   5 NSaved=   5.
 NSaved= 5 IEnMin= 5 EnMin= -231.921463756113     IErMin= 5 ErrMin= 4.21D-03
 ErrMax= 4.21D-03  0.00D+00 EMaxC= 1.00D-01 BMatC= 1.11D-03 BMatP= 2.77D-03
 IDIUse=3 WtCom= 9.58D-01 WtEn= 4.21D-02
 Coeff-Com: -0.554D-01 0.731D-01 0.129D+00 0.414D+00 0.440D+00
 Coeff-En:   0.000D+00 0.000D+00 0.000D+00 0.318D+00 0.682D+00
 Coeff:     -0.530D-01 0.700D-01 0.123D+00 0.410D+00 0.450D+00
 Gap=     0.058 Goal=   None    Shift=    0.000
 RMSDP=3.16D-04 MaxDP=5.61D-03 DE=-1.70D-03 OVMax= 1.66D-02

 Cycle   6  Pass 0  IDiag  1:
 E= -231.922704174456     Delta-E=       -0.001240418343 Rises=F Damp=F
 DIIS: error= 8.91D-04 at cycle   6 NSaved=   6.
 NSaved= 6 IEnMin= 6 EnMin= -231.922704174456     IErMin= 6 ErrMin= 8.91D-04
 ErrMax= 8.91D-04  0.00D+00 EMaxC= 1.00D-01 BMatC= 6.01D-05 BMatP= 1.11D-03
 IDIUse=3 WtCom= 9.91D-01 WtEn= 8.91D-03
 Coeff-Com:  0.292D-01-0.385D-01-0.429D-01 0.707D-01 0.225D+00 0.756D+00
 Coeff-En:   0.000D+00 0.000D+00 0.000D+00 0.000D+00 0.000D+00 0.100D+01
 Coeff:      0.289D-01-0.382D-01-0.425D-01 0.701D-01 0.223D+00 0.759D+00
 Gap=     0.061 Goal=   None    Shift=    0.000
 RMSDP=1.05D-04 MaxDP=2.36D-03 DE=-1.24D-03 OVMax= 7.83D-03

 Cycle   7  Pass 0  IDiag  1:
 E= -231.922739460468     Delta-E=       -0.000035286012 Rises=F Damp=F
 DIIS: error= 8.59D-04 at cycle   7 NSaved=   7.
 NSaved= 7 IEnMin= 7 EnMin= -231.922739460468     IErMin= 7 ErrMin= 8.59D-04
 ErrMax= 8.59D-04  0.00D+00 EMaxC= 1.00D-01 BMatC= 3.00D-05 BMatP= 6.01D-05
 IDIUse=3 WtCom= 9.91D-01 WtEn= 8.59D-03
 Coeff-Com:  0.107D-01-0.137D-01 0.244D-01-0.344D-02-0.214D-01-0.998D-01
 Coeff-Com:  0.110D+01
 Coeff-En:   0.000D+00 0.000D+00 0.000D+00 0.000D+00 0.000D+00 0.129D+00
 Coeff-En:   0.871D+00
 Coeff:      0.106D-01-0.136D-01 0.242D-01-0.341D-02-0.212D-01-0.978D-01
 Coeff:      0.110D+01
 Gap=     0.061 Goal=   None    Shift=    0.000
 RMSDP=3.92D-05 MaxDP=1.22D-03 DE=-3.53D-05 OVMax= 3.08D-03

 Cycle   8  Pass 0  IDiag  1:
 E= -231.922776704841     Delta-E=       -0.000037244373 Rises=F Damp=F
 DIIS: error= 1.74D-04 at cycle   8 NSaved=   8.
 NSaved= 8 IEnMin= 8 EnMin= -231.922776704841     IErMin= 8 ErrMin= 1.74D-04
 ErrMax= 1.74D-04  0.00D+00 EMaxC= 1.00D-01 BMatC= 1.67D-06 BMatP= 3.00D-05
 IDIUse=3 WtCom= 9.98D-01 WtEn= 1.74D-03
 Coeff-Com: -0.381D-03 0.418D-03 0.130D-01 0.623D-02-0.307D-03-0.271D-01
 Coeff-Com:  0.106D+00 0.903D+00
 Coeff-En:   0.000D+00 0.000D+00 0.000D+00 0.000D+00 0.000D+00 0.000D+00
 Coeff-En:   0.000D+00 0.100D+01
 Coeff:     -0.380D-03 0.418D-03 0.129D-01 0.622D-02-0.306D-03-0.271D-01
 Coeff:      0.105D+00 0.903D+00
 Gap=     0.061 Goal=   None    Shift=    0.000
 RMSDP=1.11D-05 MaxDP=2.86D-04 DE=-3.72D-05 OVMax= 8.42D-04

 Cycle   9  Pass 0  IDiag  1:
 E= -231.922778805149     Delta-E=       -0.000002100308 Rises=F Damp=F
 DIIS: error= 4.80D-05 at cycle   9 NSaved=   9.
 NSaved= 9 IEnMin= 9 EnMin= -231.922778805149     IErMin= 9 ErrMin= 4.80D-05
 ErrMax= 4.80D-05  0.00D+00 EMaxC= 1.00D-01 BMatC= 1.01D-07 BMatP= 1.67D-06
 IDIUse=1 WtCom= 1.00D+00 WtEn= 0.00D+00
 Coeff-Com: -0.314D-03 0.381D-03 0.445D-02 0.106D-02-0.252D-02-0.150D-01
 Coeff-Com: -0.277D-01 0.492D+00 0.548D+00
 Coeff:     -0.314D-03 0.381D-03 0.445D-02 0.106D-02-0.252D-02-0.150D-01
 Coeff:     -0.277D-01 0.492D+00 0.548D+00
 Gap=     0.061 Goal=   None    Shift=    0.000
 RMSDP=2.99D-06 MaxDP=1.06D-04 DE=-2.10D-06 OVMax= 2.53D-04

 Initial convergence to 1.0D-05 achieved.  Increase integral accuracy.
 Cycle  10  Pass 1  IDiag  1:
 E= -231.922783761675     Delta-E=       -0.000004956527 Rises=F Damp=F
 DIIS: error= 1.09D-05 at cycle   1 NSaved=   1.
 NSaved= 1 IEnMin= 1 EnMin= -231.922783761675     IErMin= 1 ErrMin= 1.09D-05
 ErrMax= 1.09D-05  0.00D+00 EMaxC= 1.00D-01 BMatC= 4.59D-09 BMatP= 4.59D-09
 IDIUse=1 WtCom= 1.00D+00 WtEn= 0.00D+00
 Coeff-Com:  0.100D+01
 Coeff:      0.100D+01
 Gap=     0.061 Goal=   None    Shift=    0.000
 RMSDP=2.99D-06 MaxDP=1.06D-04 DE=-4.96D-06 OVMax= 2.07D-04

 Cycle  11  Pass 1  IDiag  1:
 E= -231.922783727060     Delta-E=        0.000000034616 Rises=F Damp=F
 DIIS: error= 3.24D-05 at cycle   2 NSaved=   2.
 NSaved= 2 IEnMin= 1 EnMin= -231.922783761675     IErMin= 1 ErrMin= 1.09D-05
 ErrMax= 3.24D-05  0.00D+00 EMaxC= 1.00D-01 BMatC= 3.16D-08 BMatP= 4.59D-09
 IDIUse=1 WtCom= 1.00D+00 WtEn= 0.00D+00
 Coeff-Com:  0.742D+00 0.258D+00
 Coeff:      0.742D+00 0.258D+00
 Gap=     0.061 Goal=   None    Shift=    0.000
 RMSDP=1.48D-06 MaxDP=5.96D-05 DE= 3.46D-08 OVMax= 1.59D-04

 Cycle  12  Pass 1  IDiag  1:
 E= -231.922783768558     Delta-E=       -0.000000041498 Rises=F Damp=F
 DIIS: error= 1.82D-06 at cycle   3 NSaved=   3.
 NSaved= 3 IEnMin= 3 EnMin= -231.922783768558     IErMin= 3 ErrMin= 1.82D-06
 ErrMax= 1.82D-06  0.00D+00 EMaxC= 1.00D-01 BMatC= 2.66D-10 BMatP= 4.59D-09
 IDIUse=1 WtCom= 1.00D+00 WtEn= 0.00D+00
 Coeff-Com:  0.180D+00 0.964D-01 0.724D+00
 Coeff:      0.180D+00 0.964D-01 0.724D+00
 Gap=     0.061 Goal=   None    Shift=    0.000
 RMSDP=1.88D-07 MaxDP=3.93D-06 DE=-4.15D-08 OVMax= 1.08D-05

 Cycle  13  Pass 1  IDiag  1:
 E= -231.922783768742     Delta-E=       -0.000000000184 Rises=F Damp=F
 DIIS: error= 1.05D-06 at cycle   4 NSaved=   4.
 NSaved= 4 IEnMin= 4 EnMin= -231.922783768742     IErMin= 4 ErrMin= 1.05D-06
 ErrMax= 1.05D-06  0.00D+00 EMaxC= 1.00D-01 BMatC= 9.71D-11 BMatP= 2.66D-10
 IDIUse=1 WtCom= 1.00D+00 WtEn= 0.00D+00
 Coeff-Com:  0.337D-01 0.313D-01 0.412D+00 0.523D+00
 Coeff:      0.337D-01 0.313D-01 0.412D+00 0.523D+00
 Gap=     0.061 Goal=   None    Shift=    0.000
 RMSDP=1.06D-07 MaxDP=2.26D-06 DE=-1.84D-10 OVMax= 5.63D-06

 Cycle  14  Pass 1  IDiag  1:
 E= -231.922783768823     Delta-E=       -0.000000000081 Rises=F Damp=F
 DIIS: error= 6.15D-07 at cycle   5 NSaved=   5.
 NSaved= 5 IEnMin= 5 EnMin= -231.922783768823     IErMin= 5 ErrMin= 6.15D-07
 ErrMax= 6.15D-07  0.00D+00 EMaxC= 1.00D-01 BMatC= 2.15D-11 BMatP= 9.71D-11
 IDIUse=1 WtCom= 1.00D+00 WtEn= 0.00D+00
 Coeff-Com: -0.978D-02 0.642D-02 0.149D+00 0.353D+00 0.501D+00
 Coeff:     -0.978D-02 0.642D-02 0.149D+00 0.353D+00 0.501D+00
 Gap=     0.061 Goal=   None    Shift=    0.000
 RMSDP=4.25D-08 MaxDP=1.02D-06 DE=-8.10D-11 OVMax= 2.24D-06

 Cycle  15  Pass 1  IDiag  1:
 E= -231.922783768848     Delta-E=       -0.000000000025 Rises=F Damp=F
 DIIS: error= 1.08D-07 at cycle   6 NSaved=   6.
 NSaved= 6 IEnMin= 6 EnMin= -231.922783768848     IErMin= 6 ErrMin= 1.08D-07
 ErrMax= 1.08D-07  0.00D+00 EMaxC= 1.00D-01 BMatC= 1.02D-12 BMatP= 2.15D-11
 IDIUse=1 WtCom= 1.00D+00 WtEn= 0.00D+00
 Coeff-Com: -0.701D-02 0.187D-02 0.363D-01 0.136D+00 0.250D+00 0.583D+00
 Coeff:     -0.701D-02 0.187D-02 0.363D-01 0.136D+00 0.250D+00 0.583D+00
 Gap=     0.061 Goal=   None    Shift=    0.000
 RMSDP=8.95D-09 MaxDP=2.49D-07 DE=-2.48D-11 OVMax= 4.51D-07

 SCF Done:  E(RAPFD) =  -231.922783769     A.U. after   15 cycles
            NFock= 15  Conv=0.90D-08     -V/T= 2.0081
 KE= 2.300676446245D+02 PE=-9.297929759723D+02 EE= 2.715228215079D+02
 Leave Link  502 at Thu Apr 15 17:58:56 2021, MaxMem=  1073741824 cpu:              16.7 elap:              16.8
 (Enter /apps/gaussian/g16-c01-avx2/g16/l601.exe)
 Copying SCF densities to generalized density rwf, IOpCl= 0 IROHF=0.

 **********************************************************************

            Population analysis using the SCF Density.

 **********************************************************************

 Orbital symmetries:
       Occupied  (A') (A') (A') (A') (A') (A') (A') (A') (A') (A')
                 (A') (A') (A') (A') (A') (A') (A') (A") (A') (A")
                 (A")
       Virtual   (A") (A') (A") (A") (A') (A') (A') (A') (A') (A')
                 (A') (A') (A') (A') (A') (A') (A') (A") (A') (A')
                 (A") (A') (A') (A") (A") (A') (A") (A') (A') (A')
                 (A") (A') (A') (A') (A') (A") (A') (A') (A") (A')
                 (A") (A') (A") (A') (A") (A') (A") (A') (A') (A')
                 (A') (A") (A') (A') (A') (A') (A") (A') (A') (A")
                 (A') (A') (A") (A") (A') (A") (A') (A") (A") (A')
                 (A') (A") (A') (A') (A') (A') (A") (A') (A') (A")
                 (A') (A") (A') (A') (A') (A') (A') (A') (A') (A')
                 (A') (A') (A')
 The electronic state is 1-A'.
 Alpha  occ. eigenvalues --  -10.28760 -10.24317 -10.21042 -10.20965 -10.19744
 Alpha  occ. eigenvalues --  -10.19742  -0.87545  -0.76414  -0.68646  -0.68104
 Alpha  occ. eigenvalues --   -0.54880  -0.52341  -0.51187  -0.46598  -0.41407
 Alpha  occ. eigenvalues --   -0.37453  -0.37212  -0.37120  -0.35345  -0.26424
 Alpha  occ. eigenvalues --   -0.18443
 Alpha virt. eigenvalues --   -0.12311   0.07519   0.07522   0.09739   0.09888
 Alpha virt. eigenvalues --    0.12019   0.14344   0.14470   0.15192   0.19988
 Alpha virt. eigenvalues --    0.21812   0.27386   0.32387   0.34020   0.39009
 Alpha virt. eigenvalues --    0.43785   0.45501   0.47652   0.48387   0.49518
 Alpha virt. eigenvalues --    0.51436   0.53501   0.54240   0.55964   0.58281
 Alpha virt. eigenvalues --    0.59673   0.63176   0.64333   0.65538   0.66889
 Alpha virt. eigenvalues --    0.67092   0.71277   0.72873   0.77290   0.81869
 Alpha virt. eigenvalues --    0.82337   0.85919   0.88463   0.91413   0.92798
 Alpha virt. eigenvalues --    0.97931   0.99378   1.00303   1.01928   1.04388
 Alpha virt. eigenvalues --    1.05935   1.08595   1.15435   1.17705   1.22244
 Alpha virt. eigenvalues --    1.32042   1.38537   1.42160   1.43629   1.44964
 Alpha virt. eigenvalues --    1.45894   1.48225   1.51444   1.53899   1.55259
 Alpha virt. eigenvalues --    1.61418   1.62336   1.62890   1.63329   1.66313
 Alpha virt. eigenvalues --    1.66313   1.72746   1.76325   1.79864   1.81481
 Alpha virt. eigenvalues --    1.83785   1.84691   1.85659   1.90446   1.94404
 Alpha virt. eigenvalues --    2.02443   2.07513   2.08219   2.12552   2.13998
 Alpha virt. eigenvalues --    2.16555   2.18367   2.26324   2.36306   2.41984
 Alpha virt. eigenvalues --    2.46367   2.48919   2.57494   2.58672   2.63780
 Alpha virt. eigenvalues --    2.82565   3.02451   3.25724
          Condensed to atoms (all electrons):
               1          2          3          4          5          6
     1  C    4.807671   0.574009  -0.001365  -0.001365   0.412340  -0.047972
     2  C    0.574009   4.779423   0.373998   0.373998  -0.068946  -0.009077
     3  H   -0.001365   0.373998   0.591177  -0.042067   0.006612  -0.000030
     4  H   -0.001365   0.373998  -0.042067   0.591177  -0.009588   0.003001
     5  C    0.412340  -0.068946   0.006612  -0.009588   5.016372   0.405839
     6  H   -0.047972  -0.009077  -0.000030   0.003001   0.405839   0.701539
     7  C    0.412340  -0.068946  -0.009588   0.006612  -0.138355   0.012199
     8  H   -0.047973  -0.009077   0.003001  -0.000030   0.012200  -0.000366
     9  C   -0.043189   0.004707   0.000071  -0.000306  -0.063611   0.007210
    10  H    0.007309  -0.000087   0.000000   0.000002   0.008514  -0.000264
    11  C   -0.043189   0.004707  -0.000306   0.000071   0.533298  -0.046322
    12  H    0.007309  -0.000087   0.000002   0.000000  -0.045360  -0.004820
               7          8          9         10         11         12
     1  C    0.412340  -0.047973  -0.043189   0.007309  -0.043189   0.007309
     2  C   -0.068946  -0.009077   0.004707  -0.000087   0.004707  -0.000087
     3  H   -0.009588   0.003001   0.000071   0.000000  -0.000306   0.000002
     4  H    0.006612  -0.000030  -0.000306   0.000002   0.000071   0.000000
     5  C   -0.138355   0.012200  -0.063611   0.008514   0.533298  -0.045360
     6  H    0.012199  -0.000366   0.007210  -0.000264  -0.046322  -0.004820
     7  C    5.016368   0.405840   0.533299  -0.045359  -0.063611   0.008514
     8  H    0.405840   0.701540  -0.046322  -0.004820   0.007210  -0.000264
     9  C    0.533299  -0.046322   4.812611   0.416855   0.426898  -0.055339
    10  H   -0.045359  -0.004820   0.416855   0.681086  -0.055338  -0.007813
    11  C   -0.063611   0.007210   0.426898  -0.055338   4.812606   0.416856
    12  H    0.008514  -0.000264  -0.055339  -0.007813   0.416856   0.681088
 Mulliken charges:
               1
     1  C   -0.035923
     2  C    0.045375
     3  H    0.078496
     4  H    0.078496
     5  C   -0.069315
     6  H   -0.020938
     7  C   -0.069313
     8  H   -0.020939
     9  C    0.007114
    10  H   -0.000085
    11  C    0.007119
    12  H   -0.000087
 Sum of Mulliken charges =  -0.00000
 Mulliken charges with hydrogens summed into heavy atoms:
               1
     1  C   -0.035923
     2  C    0.202367
     5  C   -0.090253
     7  C   -0.090253
     9  C    0.007029
    11  C    0.007032
 Electronic spatial extent (au):  <R**2>=            523.6832
 Charge=             -0.0000 electrons
 Dipole moment (field-independent basis, Debye):
    X=             -1.8150    Y=              0.0000    Z=             -0.0000  Tot=              1.8150
 Quadrupole moment (field-independent basis, Debye-Ang):
   XX=            -26.0756   YY=            -33.8449   ZZ=            -39.9875
   XY=              0.0000   XZ=             -0.0000   YZ=              0.0000
 Traceless Quadrupole moment (field-independent basis, Debye-Ang):
   XX=              7.2271   YY=             -0.5423   ZZ=             -6.6848
   XY=              0.0000   XZ=             -0.0000   YZ=              0.0000
 Octapole moment (field-independent basis, Debye-Ang**2):
  XXX=            -11.4095  YYY=              0.0000  ZZZ=             -0.0000  XYY=             -2.3973
  XXY=              0.0000  XXZ=             -0.0000  XZZ=             -1.0350  YZZ=             -0.0000
  YYZ=             -0.0000  XYZ=              0.0000
 Hexadecapole moment (field-independent basis, Debye-Ang**3):
 XXXX=           -403.4265 YYYY=           -194.3942 ZZZZ=            -44.8935 XXXY=             -0.0001
 XXXZ=             -0.0000 YYYX=             -0.0000 YYYZ=              0.0000 ZZZX=             -0.0000
 ZZZY=              0.0000 XXYY=            -97.7426 XXZZ=            -94.4088 YYZZ=            -47.0199
 XXYZ=              0.0000 YYXZ=             -0.0000 ZZXY=             -0.0000
 N-N= 1.962797260710D+02 E-N=-9.297929673812D+02  KE= 2.300676446245D+02
 Symmetry A'   KE= 2.237992930431D+02
 Symmetry A"   KE= 6.268351581400D+00
 No NMR shielding tensors so no spin-rotation constants.
 Leave Link  601 at Thu Apr 15 17:58:56 2021, MaxMem=  1073741824 cpu:               0.1 elap:               0.1
 (Enter /apps/gaussian/g16-c01-avx2/g16/l607.exe)
 ******************************Gaussian NBO Version 3.1******************************
             N A T U R A L   A T O M I C   O R B I T A L   A N D
          N A T U R A L   B O N D   O R B I T A L   A N A L Y S I S
 ******************************Gaussian NBO Version 3.1******************************
       /RESON  / : Allow strongly delocalized NBO set

 Analyzing the SCF density

 Job title: NBOs -> Freq -> IRC + AIM computation                           

 Storage needed:     39546 in NPA,     52484 in NBO (1073741008 available)
 GSVD:  LWork=        8004 too small for GESVD, short by        1548 words or        1548 for optimal perf.


 NATURAL POPULATIONS:  Natural atomic orbital occupancies 
                                                          
   NAO  Atom  No  lang   Type(AO)    Occupancy      Energy
 ----------------------------------------------------------
     1    C    1  S      Cor( 1S)     1.99869     -10.10147
     2    C    1  S      Val( 2S)     0.91606      -0.15535
     3    C    1  S      Ryd( 3S)     0.00074       0.95670
     4    C    1  px     Val( 2p)     1.08224      -0.07843
     5    C    1  px     Ryd( 3p)     0.00372       1.00444
     6    C    1  py     Val( 2p)     1.11786      -0.06270
     7    C    1  py     Ryd( 3p)     0.00548       0.90052
     8    C    1  pz     Val( 2p)     0.98323      -0.10538
     9    C    1  pz     Ryd( 3p)     0.00051       0.61867
    10    C    1  dxy    Ryd( 3d)     0.00083       2.10692
    11    C    1  dxz    Ryd( 3d)     0.00080       1.49787
    12    C    1  dyz    Ryd( 3d)     0.00180       1.47216
    13    C    1  dx2y2  Ryd( 3d)     0.00106       2.01456
    14    C    1  dz2    Ryd( 3d)     0.00046       1.86378
 
    15    C    2  S      Cor( 1S)     1.99937     -10.17956
    16    C    2  S      Val( 2S)     1.14896      -0.32083
    17    C    2  S      Ryd( 3S)     0.00023       0.94032
    18    C    2  px     Val( 2p)     1.05637      -0.07251
    19    C    2  px     Ryd( 3p)     0.00138       0.45510
    20    C    2  py     Val( 2p)     1.19174      -0.07733
    21    C    2  py     Ryd( 3p)     0.00339       0.83984
    22    C    2  pz     Val( 2p)     0.78019      -0.15657
    23    C    2  pz     Ryd( 3p)     0.00197       0.50586
    24    C    2  dxy    Ryd( 3d)     0.00070       2.08390
    25    C    2  dxz    Ryd( 3d)     0.00038       1.39318
    26    C    2  dyz    Ryd( 3d)     0.00007       1.33850
    27    C    2  dx2y2  Ryd( 3d)     0.00041       1.84611
    28    C    2  dz2    Ryd( 3d)     0.00019       1.69707
 
    29    H    3  S      Val( 1S)     0.78024       0.04700
    30    H    3  S      Ryd( 2S)     0.00109       0.30746
    31    H    3  px     Ryd( 2p)     0.00032       1.81995
    32    H    3  py     Ryd( 2p)     0.00079       2.05595
    33    H    3  pz     Ryd( 2p)     0.00023       1.49681
 
    34    H    4  S      Val( 1S)     0.78024       0.04700
    35    H    4  S      Ryd( 2S)     0.00109       0.30746
    36    H    4  px     Ryd( 2p)     0.00032       1.81995
    37    H    4  py     Ryd( 2p)     0.00079       2.05595
    38    H    4  pz     Ryd( 2p)     0.00023       1.49681
 
    39    C    5  S      Cor( 1S)     1.99895     -10.06589
    40    C    5  S      Val( 2S)     0.98470      -0.16076
    41    C    5  S      Ryd( 3S)     0.00090       1.04474
    42    C    5  px     Val( 2p)     1.02346      -0.02718
    43    C    5  px     Ryd( 3p)     0.00404       0.69463
    44    C    5  py     Val( 2p)     1.15863      -0.02687
    45    C    5  py     Ryd( 3p)     0.00528       0.92571
    46    C    5  pz     Val( 2p)     1.11180      -0.09625
    47    C    5  pz     Ryd( 3p)     0.00352       0.57742
    48    C    5  dxy    Ryd( 3d)     0.00081       2.02308
    49    C    5  dxz    Ryd( 3d)     0.00062       1.46280
    50    C    5  dyz    Ryd( 3d)     0.00066       1.51132
    51    C    5  dx2y2  Ryd( 3d)     0.00066       2.10244
    52    C    5  dz2    Ryd( 3d)     0.00044       1.91982
 
    53    H    6  S      Val( 1S)     0.77288       0.10604
    54    H    6  S      Ryd( 2S)     0.00105       0.32017
    55    H    6  px     Ryd( 2p)     0.00014       1.92192
    56    H    6  py     Ryd( 2p)     0.00083       2.22992
    57    H    6  pz     Ryd( 2p)     0.00035       1.58068
 
    58    C    7  S      Cor( 1S)     1.99895     -10.06589
    59    C    7  S      Val( 2S)     0.98470      -0.16076
    60    C    7  S      Ryd( 3S)     0.00090       1.04474
    61    C    7  px     Val( 2p)     1.02346      -0.02718
    62    C    7  px     Ryd( 3p)     0.00404       0.69463
    63    C    7  py     Val( 2p)     1.15863      -0.02687
    64    C    7  py     Ryd( 3p)     0.00528       0.92571
    65    C    7  pz     Val( 2p)     1.11180      -0.09625
    66    C    7  pz     Ryd( 3p)     0.00352       0.57742
    67    C    7  dxy    Ryd( 3d)     0.00081       2.02308
    68    C    7  dxz    Ryd( 3d)     0.00062       1.46280
    69    C    7  dyz    Ryd( 3d)     0.00066       1.51132
    70    C    7  dx2y2  Ryd( 3d)     0.00066       2.10244
    71    C    7  dz2    Ryd( 3d)     0.00044       1.91982
 
    72    H    8  S      Val( 1S)     0.77288       0.10604
    73    H    8  S      Ryd( 2S)     0.00105       0.32017
    74    H    8  px     Ryd( 2p)     0.00014       1.92192
    75    H    8  py     Ryd( 2p)     0.00083       2.22992
    76    H    8  pz     Ryd( 2p)     0.00035       1.58068
 
    77    C    9  S      Cor( 1S)     1.99894     -10.07391
    78    C    9  S      Val( 2S)     0.99149      -0.16552
    79    C    9  S      Ryd( 3S)     0.00099       0.98833
    80    C    9  px     Val( 2p)     1.11611      -0.03242
    81    C    9  px     Ryd( 3p)     0.00472       0.84325
    82    C    9  py     Val( 2p)     1.11411      -0.03578
    83    C    9  py     Ryd( 3p)     0.00447       0.71418
    84    C    9  pz     Val( 2p)     0.99455      -0.09538
    85    C    9  pz     Ryd( 3p)     0.00190       0.56669
    86    C    9  dxy    Ryd( 3d)     0.00080       2.16287
    87    C    9  dxz    Ryd( 3d)     0.00055       1.46234
    88    C    9  dyz    Ryd( 3d)     0.00109       1.51549
    89    C    9  dx2y2  Ryd( 3d)     0.00071       2.01072
    90    C    9  dz2    Ryd( 3d)     0.00038       1.89801
 
    91    H   10  S      Val( 1S)     0.76493       0.10267
    92    H   10  S      Ryd( 2S)     0.00115       0.30919
    93    H   10  px     Ryd( 2p)     0.00061       2.11546
    94    H   10  py     Ryd( 2p)     0.00043       2.01320
    95    H   10  pz     Ryd( 2p)     0.00024       1.57014
 
    96    C   11  S      Cor( 1S)     1.99894     -10.07391
    97    C   11  S      Val( 2S)     0.99149      -0.16552
    98    C   11  S      Ryd( 3S)     0.00099       0.98833
    99    C   11  px     Val( 2p)     1.11612      -0.03242
   100    C   11  px     Ryd( 3p)     0.00472       0.84325
   101    C   11  py     Val( 2p)     1.11411      -0.03578
   102    C   11  py     Ryd( 3p)     0.00447       0.71418
   103    C   11  pz     Val( 2p)     0.99455      -0.09538
   104    C   11  pz     Ryd( 3p)     0.00190       0.56669
   105    C   11  dxy    Ryd( 3d)     0.00080       2.16288
   106    C   11  dxz    Ryd( 3d)     0.00055       1.46235
   107    C   11  dyz    Ryd( 3d)     0.00109       1.51549
   108    C   11  dx2y2  Ryd( 3d)     0.00071       2.01073
   109    C   11  dz2    Ryd( 3d)     0.00038       1.89801
 
   110    H   12  S      Val( 1S)     0.76493       0.10268
   111    H   12  S      Ryd( 2S)     0.00115       0.30918
   112    H   12  px     Ryd( 2p)     0.00061       2.11547
   113    H   12  py     Ryd( 2p)     0.00043       2.01321
   114    H   12  pz     Ryd( 2p)     0.00024       1.57014

 WARNING:  1 low occupancy (<1.9990e) core orbital  found on  C    1
           1 low occupancy (<1.9990e) core orbital  found on  C    5
           1 low occupancy (<1.9990e) core orbital  found on  C    7
           1 low occupancy (<1.9990e) core orbital  found on  C    9
           1 low occupancy (<1.9990e) core orbital  found on  C   11


 Summary of Natural Population Analysis:                  
                                                          
                                       Natural Population 
                Natural  -----------------------------------------------
    Atom  No    Charge         Core      Valence    Rydberg      Total
 -----------------------------------------------------------------------
      C    1   -0.11348      1.99869     4.09940    0.01539     6.11348
      C    2   -0.18535      1.99937     4.17726    0.00872     6.18535
      H    3    0.21734      0.00000     0.78024    0.00243     0.78266
      H    4    0.21734      0.00000     0.78024    0.00243     0.78266
      C    5   -0.29449      1.99895     4.27859    0.01694     6.29449
      H    6    0.22475      0.00000     0.77288    0.00238     0.77525
      C    7   -0.29449      1.99895     4.27859    0.01694     6.29449
      H    8    0.22475      0.00000     0.77288    0.00238     0.77525
      C    9   -0.23081      1.99894     4.21627    0.01560     6.23081
      H   10    0.23263      0.00000     0.76493    0.00244     0.76737
      C   11   -0.23081      1.99894     4.21626    0.01560     6.23081
      H   12    0.23263      0.00000     0.76493    0.00244     0.76737
 =======================================================================
   * Total *   -0.00000     11.99385    29.90246    0.10369    42.00000

                                 Natural Population      
 --------------------------------------------------------
   Core                      11.99385 ( 99.9487% of  12)
   Valence                   29.90246 ( 99.6749% of  30)
   Natural Minimal Basis     41.89631 ( 99.7531% of  42)
   Natural Rydberg Basis      0.10369 (  0.2469% of  42)
 --------------------------------------------------------

    Atom  No          Natural Electron Configuration
 ----------------------------------------------------------------------------
      C    1      [core]2S( 0.92)2p( 3.18)3p( 0.01)
      C    2      [core]2S( 1.15)2p( 3.03)3p( 0.01)
      H    3            1S( 0.78)
      H    4            1S( 0.78)
      C    5      [core]2S( 0.98)2p( 3.29)3p( 0.01)
      H    6            1S( 0.77)
      C    7      [core]2S( 0.98)2p( 3.29)3p( 0.01)
      H    8            1S( 0.77)
      C    9      [core]2S( 0.99)2p( 3.22)3p( 0.01)
      H   10            1S( 0.76)
      C   11      [core]2S( 0.99)2p( 3.22)3p( 0.01)
      H   12            1S( 0.76)


 NATURAL BOND ORBITAL ANALYSIS:

                       Occupancies       Lewis Structure    Low   High
           Occ.    -------------------  -----------------   occ   occ
  Cycle   Thresh.   Lewis   Non-Lewis     CR  BD  3C  LP    (L)   (NL)   Dev
 =============================================================================
   1(1)    1.90    39.01531   2.98469      6  12   0   3     3      3    0.58
   2(2)    1.90    39.01531   2.98469      6  12   0   3     3      3    0.58
   3(1)    1.80    40.37734   1.62266      6  14   0   1     1      3    0.58
   4(2)    1.80    40.37734   1.62266      6  14   0   1     1      3    0.58
   5(1)    1.70    40.37734   1.62266      6  14   0   1     1      3    0.58
   6(2)    1.70    40.37734   1.62266      6  14   0   1     1      3    0.58
   7(1)    1.60    41.05734   0.94266      6  15   0   0     0      3    0.31
   8(2)    1.60    41.05734   0.94266      6  15   0   0     0      3    0.31
   9(1)    1.50    41.05734   0.94266      6  15   0   0     0      3    0.31
  10(2)    1.50    40.53971   1.46029      6  15   0   0     0      3    0.52
  11(3)    1.50    41.05734   0.94266      6  15   0   0     0      3    0.31
  12(1)    1.60    41.05734   0.94266      6  15   0   0     0      3    0.31
 -----------------------------------------------------------------------------

 Structure accepted: RESONANCE keyword permits strongly delocalized structure

 WARNING:  1 low occupancy (<1.9990e) core orbital  found on  C    1
           1 low occupancy (<1.9990e) core orbital  found on  C    5
           1 low occupancy (<1.9990e) core orbital  found on  C    7
           1 low occupancy (<1.9990e) core orbital  found on  C    9
           1 low occupancy (<1.9990e) core orbital  found on  C   11

 --------------------------------------------------------
   Core                     11.99387 ( 99.949% of  12)
   Valence Lewis            29.06348 ( 96.878% of  30)
  ==================       ============================
   Total Lewis              41.05734 ( 97.756% of  42)
  -----------------------------------------------------
   Valence non-Lewis         0.87619 (  2.086% of  42)
   Rydberg non-Lewis         0.06646 (  0.158% of  42)
  ==================       ============================
   Total non-Lewis           0.94266 (  2.244% of  42)
 --------------------------------------------------------


       (Occupancy)   Bond orbital/ Coefficients/ Hybrids
 ---------------------------------------------------------------------------------
     1. (1.98606) BD ( 1) C   1 - C   2  
                ( 51.75%)   0.7193* C   1 s( 30.63%)p 2.26( 69.35%)d 0.00(  0.02%)
                                           -0.0001  0.5534 -0.0066 -0.8327  0.0116
                                           -0.0000  0.0000  0.0000  0.0000  0.0000
                                            0.0000  0.0000  0.0130 -0.0086
                ( 48.25%)   0.6947* C   2 s( 35.26%)p 1.84( 64.71%)d 0.00(  0.03%)
                                            0.0003  0.5938  0.0056  0.8044  0.0047
                                           -0.0000  0.0000  0.0000  0.0000  0.0000
                                            0.0000  0.0000  0.0159 -0.0090
     2. (1.66328) BD ( 2) C   1 - C   2  
                ( 56.44%)   0.7513* C   1 s(  0.00%)p 1.00(100.00%)d 0.00(  0.00%)
                                            0.0000  0.0000  0.0000  0.0000  0.0000
                                            0.0000  0.0000  0.9999 -0.0115  0.0000
                                           -0.0067 -0.0000  0.0000  0.0000
                ( 43.56%)   0.6600* C   2 s(  0.00%)p 1.00( 99.95%)d 0.00(  0.05%)
                                            0.0000  0.0000  0.0000  0.0000  0.0000
                                            0.0000  0.0000  0.9991 -0.0366  0.0000
                                            0.0229  0.0000  0.0000  0.0000
     3. (1.97691) BD ( 1) C   1 - C   5  
                ( 52.17%)   0.7223* C   1 s( 34.65%)p 1.88( 65.31%)d 0.00(  0.04%)
                                           -0.0000  0.5887  0.0039  0.3910 -0.0205
                                           -0.7067 -0.0191  0.0000  0.0000 -0.0153
                                            0.0000  0.0000 -0.0015 -0.0126
                ( 47.83%)   0.6916* C   5 s( 36.17%)p 1.76( 63.78%)d 0.00(  0.05%)
                                            0.0001  0.6013  0.0137 -0.5329 -0.0395
                                            0.5934 -0.0125  0.0000  0.0000 -0.0174
                                            0.0000  0.0000 -0.0039 -0.0137
     4. (1.97691) BD ( 1) C   1 - C   7  
                ( 52.17%)   0.7223* C   1 s( 34.65%)p 1.88( 65.31%)d 0.00(  0.04%)
                                           -0.0000  0.5887  0.0039  0.3910 -0.0205
                                            0.7067  0.0191  0.0000  0.0000  0.0153
                                            0.0000  0.0000 -0.0015 -0.0126
                ( 47.83%)   0.6916* C   7 s( 36.17%)p 1.76( 63.78%)d 0.00(  0.05%)
                                            0.0001  0.6013  0.0137 -0.5329 -0.0395
                                           -0.5934  0.0125  0.0000  0.0000  0.0174
                                            0.0000  0.0000 -0.0039 -0.0137
     5. (1.99318) BD ( 1) C   2 - H   3  
                ( 60.88%)   0.7802* C   2 s( 32.34%)p 2.09( 67.63%)d 0.00(  0.03%)
                                           -0.0001  0.5687 -0.0018 -0.4196 -0.0203
                                            0.7069  0.0050  0.0000  0.0000 -0.0144
                                            0.0000  0.0000 -0.0062 -0.0057
                ( 39.12%)   0.6255* H   3 s( 99.88%)p 0.00(  0.12%)
                                            0.9994 -0.0015  0.0175 -0.0299  0.0000
     6. (1.99318) BD ( 1) C   2 - H   4  
                ( 60.88%)   0.7802* C   2 s( 32.34%)p 2.09( 67.63%)d 0.00(  0.03%)
                                           -0.0001  0.5687 -0.0018 -0.4196 -0.0203
                                           -0.7069 -0.0050  0.0000  0.0000  0.0144
                                            0.0000  0.0000 -0.0062 -0.0057
                ( 39.12%)   0.6255* H   4 s( 99.88%)p 0.00(  0.12%)
                                            0.9994 -0.0015  0.0175  0.0299  0.0000
     7. (1.98770) BD ( 1) C   5 - H   6  
                ( 61.48%)   0.7841* C   5 s( 31.66%)p 2.16( 68.33%)d 0.00(  0.01%)
                                            0.0002 -0.5626  0.0089  0.2447 -0.0076
                                            0.7894  0.0147  0.0000  0.0000 -0.0076
                                            0.0000  0.0000  0.0060  0.0061
                ( 38.52%)   0.6206* H   6 s( 99.90%)p 0.00(  0.10%)
                                           -0.9995  0.0014 -0.0087 -0.0309  0.0000
     8. (1.97046) BD ( 1) C   5 - C  11  
                ( 49.86%)   0.7061* C   5 s( 31.98%)p 2.13( 67.99%)d 0.00(  0.04%)
                                           -0.0001  0.5655 -0.0008  0.8089  0.0123
                                            0.1534 -0.0439  0.0000  0.0000  0.0110
                                            0.0000  0.0000  0.0094 -0.0119
                ( 50.14%)   0.7081* C  11 s( 30.49%)p 2.28( 69.47%)d 0.00(  0.04%)
                                           -0.0000  0.5522 -0.0042 -0.7584  0.0193
                                           -0.3430 -0.0396  0.0000  0.0000  0.0038
                                            0.0000  0.0000  0.0141 -0.0117
     9. (1.80037) BD ( 2) C   5 - C  11  
                ( 53.94%)   0.7344* C   5 s(  0.00%)p 1.00( 99.95%)d 0.00(  0.05%)
                                            0.0000  0.0000  0.0000  0.0000  0.0000
                                            0.0000  0.0000  0.9994 -0.0262  0.0000
                                            0.0121  0.0189  0.0000  0.0000
                ( 46.06%)   0.6787* C  11 s(  0.00%)p 1.00( 99.93%)d 0.00(  0.07%)
                                            0.0000  0.0000  0.0000  0.0000  0.0000
                                            0.0000  0.0000  0.9993 -0.0289  0.0000
                                           -0.0248  0.0065  0.0000  0.0000
    10. (1.98770) BD ( 1) C   7 - H   8  
                ( 61.48%)   0.7841* C   7 s( 31.66%)p 2.16( 68.32%)d 0.00(  0.01%)
                                           -0.0002  0.5626 -0.0089 -0.2447  0.0076
                                            0.7894  0.0147  0.0000  0.0000 -0.0076
                                            0.0000  0.0000 -0.0060 -0.0061
                ( 38.52%)   0.6206* H   8 s( 99.90%)p 0.00(  0.10%)
                                            0.9995 -0.0014  0.0087 -0.0309  0.0000
    11. (1.97046) BD ( 1) C   7 - C   9  
                ( 49.86%)   0.7061* C   7 s( 31.98%)p 2.13( 67.99%)d 0.00(  0.04%)
                                           -0.0001  0.5655 -0.0008  0.8089  0.0123
                                           -0.1534  0.0439  0.0000  0.0000 -0.0110
                                            0.0000  0.0000  0.0094 -0.0119
                ( 50.14%)   0.7081* C   9 s( 30.49%)p 2.28( 69.47%)d 0.00(  0.04%)
                                           -0.0000  0.5522 -0.0042 -0.7584  0.0193
                                            0.3430  0.0396  0.0000  0.0000 -0.0038
                                            0.0000  0.0000  0.0141 -0.0117
    12. (1.80037) BD ( 2) C   7 - C   9  
                ( 53.94%)   0.7344* C   7 s(  0.00%)p 1.00( 99.95%)d 0.00(  0.05%)
                                            0.0000  0.0000  0.0000  0.0000  0.0000
                                            0.0000  0.0000  0.9994 -0.0262  0.0000
                                            0.0121 -0.0189  0.0000  0.0000
                ( 46.06%)   0.6787* C   9 s(  0.00%)p 1.00( 99.93%)d 0.00(  0.07%)
                                            0.0000  0.0000  0.0000  0.0000  0.0000
                                            0.0000  0.0000  0.9993 -0.0289  0.0000
                                           -0.0248 -0.0065  0.0000  0.0000
    13. (1.98611) BD ( 1) C   9 - H  10  
                ( 61.91%)   0.7868* C   9 s( 32.42%)p 2.08( 67.57%)d 0.00(  0.01%)
                                           -0.0002  0.5692 -0.0120  0.6453 -0.0010
                                            0.5092  0.0058  0.0000  0.0000  0.0085
                                            0.0000  0.0000  0.0050 -0.0065
                ( 38.09%)   0.6172* H  10 s( 99.89%)p 0.00(  0.11%)
                                            0.9995 -0.0017 -0.0258 -0.0205  0.0000
    14. (1.98468) BD ( 1) C   9 - C  11  
                ( 50.00%)   0.7071* C   9 s( 36.95%)p 1.70( 63.00%)d 0.00(  0.04%)
                                           -0.0001 -0.6076 -0.0192 -0.0862 -0.0443
                                            0.7876  0.0170  0.0000  0.0000  0.0021
                                            0.0000  0.0000  0.0170  0.0117
                ( 50.00%)   0.7071* C  11 s( 36.95%)p 1.70( 63.00%)d 0.00(  0.04%)
                                           -0.0001 -0.6076 -0.0192 -0.0862 -0.0443
                                           -0.7876 -0.0170  0.0000  0.0000 -0.0021
                                            0.0000  0.0000  0.0170  0.0117
    15. (1.98611) BD ( 1) C  11 - H  12  
                ( 61.91%)   0.7868* C  11 s( 32.42%)p 2.08( 67.57%)d 0.00(  0.01%)
                                           -0.0002  0.5692 -0.0120  0.6453 -0.0010
                                           -0.5092 -0.0058  0.0000  0.0000 -0.0085
                                            0.0000  0.0000  0.0050 -0.0065
                ( 38.09%)   0.6172* H  12 s( 99.89%)p 0.00(  0.11%)
                                            0.9995 -0.0017 -0.0258  0.0205  0.0000
    16. (1.99869) CR ( 1) C   1           s(100.00%)
                                            1.0000  0.0001 -0.0000 -0.0000 -0.0000
                                            0.0000  0.0000  0.0000  0.0000  0.0000
                                            0.0000  0.0000  0.0000 -0.0000
    17. (1.99937) CR ( 1) C   2           s(100.00%)p 0.00(  0.00%)
                                            1.0000 -0.0001 -0.0000 -0.0003 -0.0000
                                           -0.0000 -0.0000  0.0000  0.0000  0.0000
                                            0.0000  0.0000 -0.0000  0.0000
    18. (1.99896) CR ( 1) C   5           s(100.00%)p 0.00(  0.00%)
                                            1.0000  0.0001 -0.0000  0.0001  0.0000
                                           -0.0002 -0.0000  0.0000  0.0000  0.0000
                                            0.0000  0.0000  0.0000 -0.0000
    19. (1.99896) CR ( 1) C   7           s(100.00%)p 0.00(  0.00%)
                                            1.0000  0.0001 -0.0000  0.0001  0.0000
                                            0.0002  0.0000  0.0000  0.0000 -0.0000
                                            0.0000  0.0000  0.0000 -0.0000
    20. (1.99894) CR ( 1) C   9           s(100.00%)p 0.00(  0.00%)
                                            1.0000  0.0001 -0.0000  0.0001 -0.0000
                                            0.0002  0.0000  0.0000  0.0000  0.0000
                                            0.0000  0.0000  0.0000 -0.0000
    21. (1.99894) CR ( 1) C  11           s(100.00%)p 0.00(  0.00%)
                                            1.0000  0.0001 -0.0000  0.0001 -0.0000
                                           -0.0002 -0.0000  0.0000  0.0000 -0.0000
                                            0.0000  0.0000  0.0000 -0.0000
    22. (0.00486) RY*( 1) C   1           s(  0.00%)p 1.00( 95.03%)d 0.05(  4.97%)
                                           -0.0000  0.0000 -0.0000  0.0000  0.0000
                                           -0.0215  0.9746  0.0000  0.0000 -0.2230
                                            0.0000  0.0000  0.0000  0.0000
    23. (0.00394) RY*( 2) C   1           s(  9.49%)p 7.39( 70.11%)d 2.15( 20.41%)
                                           -0.0000  0.0101  0.3079  0.0239  0.8369
                                            0.0000  0.0000  0.0000  0.0000  0.0000
                                            0.0000  0.0000  0.4397 -0.1035
    24. (0.00180) RY*( 3) C   1           s(  0.00%)p 0.00(  0.00%)d 1.00(100.00%)
                                            0.0000  0.0000  0.0000  0.0000  0.0000
                                            0.0000  0.0000 -0.0000 -0.0000  0.0000
                                           -0.0000  1.0000  0.0000  0.0000
    25. (0.00132) RY*( 4) C   1           s(  0.00%)p 1.00( 36.54%)d 1.74( 63.46%)
                                            0.0000  0.0000  0.0000  0.0000  0.0000
                                            0.0000  0.0000  0.0123  0.6044  0.0000
                                            0.7966  0.0000  0.0000  0.0000
    26. (0.00035) RY*( 5) C   1           s( 74.25%)p 0.05(  3.46%)d 0.30( 22.29%)
                                            0.0000 -0.0089  0.8616 -0.0170 -0.1854
                                            0.0000  0.0000  0.0000  0.0000  0.0000
                                            0.0000  0.0000 -0.3290 -0.3386
    27. (0.00020) RY*( 6) C   1           s(  1.96%)p13.21( 25.91%)d36.78( 72.12%)
                                           -0.0000 -0.0170  0.1390 -0.0047 -0.5090
                                           -0.0000  0.0000  0.0000  0.0000  0.0000
                                            0.0000  0.0000  0.8311 -0.1746
    28. (0.00010) RY*( 7) C   1           s(  0.00%)p 1.00(  5.02%)d18.92( 94.98%)
    29. (0.00003) RY*( 8) C   1           s( 14.37%)p 0.04(  0.51%)d 5.92( 85.12%)
    30. (0.00000) RY*( 9) C   1           s(  0.00%)p 1.00( 63.46%)d 0.58( 36.54%)
    31. (0.00352) RY*( 1) C   2           s(  0.00%)p 1.00( 93.67%)d 0.07(  6.33%)
                                           -0.0000 -0.0000 -0.0000  0.0000 -0.0000
                                           -0.0017  0.9678  0.0000  0.0000  0.2516
                                            0.0000  0.0000 -0.0000  0.0000
    32. (0.00055) RY*( 2) C   2           s(  0.00%)p 1.00( 94.18%)d 0.06(  5.82%)
                                            0.0000  0.0000  0.0000  0.0000  0.0000
                                            0.0000  0.0000  0.0300  0.9700  0.0000
                                            0.2413 -0.0000  0.0000  0.0000
    33. (0.00051) RY*( 3) C   2           s( 34.81%)p 1.87( 64.98%)d 0.01(  0.21%)
                                            0.0000  0.0153  0.5898 -0.0200  0.8059
                                            0.0000  0.0000  0.0000  0.0000  0.0000
                                            0.0000  0.0000 -0.0237 -0.0391
    34. (0.00009) RY*( 4) C   2           s( 15.95%)p 0.54(  8.56%)d 4.73( 75.48%)
    35. (0.00007) RY*( 5) C   2           s(  0.00%)p 0.00(  0.00%)d 1.00(100.00%)
    36. (0.00001) RY*( 6) C   2           s( 20.29%)p 0.68( 13.76%)d 3.25( 65.95%)
    37. (0.00001) RY*( 7) C   2           s( 29.00%)p 0.44( 12.69%)d 2.01( 58.31%)
    38. (0.00001) RY*( 8) C   2           s(  0.00%)p 1.00(  6.37%)d14.69( 93.63%)
    39. (0.00000) RY*( 9) C   2           s(  0.00%)p 1.00(  5.88%)d16.02( 94.12%)
    40. (0.00112) RY*( 1) H   3           s( 97.25%)p 0.03(  2.75%)
                                            0.0071  0.9861 -0.0685  0.1509  0.0000
    41. (0.00023) RY*( 2) H   3           s(  0.00%)p 1.00(100.00%)
                                            0.0000  0.0000  0.0000  0.0000  1.0000
    42. (0.00012) RY*( 3) H   3           s(  0.34%)p99.99( 99.66%)
                                           -0.0083  0.0574 -0.7131 -0.6986 -0.0000
    43. (0.00004) RY*( 4) H   3           s(  2.53%)p38.52( 97.47%)
    44. (0.00112) RY*( 1) H   4           s( 97.25%)p 0.03(  2.75%)
                                            0.0071  0.9861 -0.0685 -0.1509  0.0000
    45. (0.00023) RY*( 2) H   4           s(  0.00%)p 1.00(100.00%)
                                            0.0000  0.0000  0.0000  0.0000  1.0000
    46. (0.00012) RY*( 3) H   4           s(  0.34%)p99.99( 99.66%)
                                           -0.0083  0.0574 -0.7131  0.6986  0.0000
    47. (0.00004) RY*( 4) H   4           s(  2.53%)p38.52( 97.47%)
    48. (0.00441) RY*( 1) C   5           s(  3.07%)p27.03( 82.88%)d 4.59( 14.06%)
                                           -0.0000  0.0352  0.1715  0.0076  0.4575
                                            0.0156  0.7868  0.0000  0.0000  0.1952
                                            0.0000  0.0000 -0.3024 -0.1051
    49. (0.00289) RY*( 2) C   5           s(  0.00%)p 1.00( 88.03%)d 0.14( 11.97%)
                                            0.0000  0.0000  0.0000  0.0000  0.0000
                                            0.0000  0.0000  0.0184  0.9381  0.0000
                                           -0.0256  0.3450  0.0000  0.0000
    50. (0.00204) RY*( 3) C   5           s(  4.70%)p19.43( 91.34%)d 0.84(  3.96%)
                                            0.0000  0.0054  0.2168  0.0334 -0.8498
                                           -0.0239  0.4353 -0.0000 -0.0000  0.1636
                                           -0.0000 -0.0000  0.0963 -0.0599
    51. (0.00069) RY*( 4) C   5           s(  0.00%)p 1.00(  0.02%)d99.99( 99.98%)
                                            0.0000  0.0000  0.0000  0.0000  0.0000
                                            0.0000  0.0000 -0.0132  0.0037  0.0000
                                            0.9978  0.0649  0.0000  0.0000
    52. (0.00044) RY*( 5) C   5           s( 84.07%)p 0.12( 10.07%)d 0.07(  5.85%)
                                            0.0000 -0.0181  0.9167 -0.0052  0.0951
                                           -0.0129 -0.3025  0.0000  0.0000  0.0158
                                            0.0000  0.0000 -0.0330 -0.2391
    53. (0.00014) RY*( 6) C   5           s(  1.04%)p11.27( 11.69%)d84.09( 87.27%)
                                            0.0000  0.0131  0.1010  0.0030  0.1700
                                           -0.0070  0.2966  0.0000  0.0000 -0.5204
                                            0.0000  0.0000  0.7733 -0.0620
    54. (0.00009) RY*( 7) C   5           s(  0.24%)p14.86(  3.50%)d99.99( 96.26%)
    55. (0.00001) RY*( 8) C   5           s(  7.07%)p 0.06(  0.43%)d13.08( 92.50%)
    56. (0.00000) RY*( 9) C   5           s(  0.00%)p 1.00( 12.00%)d 7.33( 88.00%)
    57. (0.00107) RY*( 1) H   6           s( 98.75%)p 0.01(  1.25%)
                                            0.0049  0.9937 -0.0091 -0.1116  0.0000
    58. (0.00035) RY*( 2) H   6           s(  0.00%)p 1.00(100.00%)
                                            0.0000  0.0000  0.0000  0.0000  1.0000
    59. (0.00008) RY*( 3) H   6           s(  0.01%)p99.99( 99.99%)
    60. (0.00006) RY*( 4) H   6           s(  1.34%)p73.36( 98.66%)
    61. (0.00441) RY*( 1) C   7           s(  3.07%)p27.03( 82.88%)d 4.59( 14.06%)
                                           -0.0000  0.0352  0.1715  0.0076  0.4575
                                           -0.0156 -0.7868 -0.0000 -0.0000 -0.1952
                                           -0.0000 -0.0000 -0.3024 -0.1051
    62. (0.00289) RY*( 2) C   7           s(  0.00%)p 1.00( 88.03%)d 0.14( 11.97%)
                                            0.0000  0.0000  0.0000  0.0000  0.0000
                                            0.0000  0.0000  0.0184  0.9381  0.0000
                                           -0.0256 -0.3450  0.0000  0.0000
    63. (0.00204) RY*( 3) C   7           s(  4.70%)p19.43( 91.34%)d 0.84(  3.96%)
                                            0.0000  0.0054  0.2168  0.0334 -0.8498
                                            0.0239 -0.4353 -0.0000 -0.0000 -0.1636
                                           -0.0000 -0.0000  0.0963 -0.0599
    64. (0.00069) RY*( 4) C   7           s(  0.00%)p 1.00(  0.02%)d99.99( 99.98%)
                                            0.0000  0.0000  0.0000  0.0000  0.0000
                                            0.0000  0.0000 -0.0132  0.0037  0.0000
                                            0.9978 -0.0648  0.0000  0.0000
    65. (0.00044) RY*( 5) C   7           s( 84.07%)p 0.12( 10.07%)d 0.07(  5.85%)
                                            0.0000 -0.0181  0.9167 -0.0052  0.0951
                                            0.0129  0.3025  0.0000  0.0000 -0.0157
                                            0.0000  0.0000 -0.0330 -0.2391
    66. (0.00014) RY*( 6) C   7           s(  1.04%)p11.27( 11.69%)d84.10( 87.27%)
                                            0.0000  0.0131  0.1010  0.0030  0.1700
                                            0.0070 -0.2966  0.0000  0.0000  0.5204
                                            0.0000  0.0000  0.7733 -0.0620
    67. (0.00009) RY*( 7) C   7           s(  0.24%)p14.86(  3.50%)d99.99( 96.26%)
    68. (0.00001) RY*( 8) C   7           s(  7.07%)p 0.06(  0.43%)d13.08( 92.50%)
    69. (0.00000) RY*( 9) C   7           s(  0.00%)p 1.00( 12.00%)d 7.33( 88.00%)
    70. (0.00107) RY*( 1) H   8           s( 98.75%)p 0.01(  1.25%)
                                            0.0049  0.9937 -0.0091  0.1116  0.0000
    71. (0.00035) RY*( 2) H   8           s(  0.00%)p 1.00(100.00%)
                                            0.0000  0.0000  0.0000  0.0000  1.0000
    72. (0.00008) RY*( 3) H   8           s(  0.01%)p99.99( 99.99%)
    73. (0.00006) RY*( 4) H   8           s(  1.34%)p73.36( 98.66%)
    74. (0.00380) RY*( 1) C   9           s(  3.59%)p22.09( 79.27%)d 4.78( 17.14%)
                                           -0.0000  0.0315  0.1868 -0.0247 -0.6969
                                           -0.0032 -0.5535 -0.0000 -0.0000  0.3894
                                           -0.0000 -0.0000  0.1088 -0.0891
    75. (0.00240) RY*( 2) C   9           s(  0.74%)p99.99( 94.50%)d 6.44(  4.76%)
                                            0.0000 -0.0097  0.0854 -0.0123  0.5731
                                            0.0400 -0.7841  0.0000  0.0000 -0.1691
                                            0.0000  0.0000  0.1377 -0.0059
    76. (0.00210) RY*( 3) C   9           s(  0.00%)p 1.00( 60.04%)d 0.67( 39.96%)
                                            0.0000  0.0000  0.0000  0.0000  0.0000
                                            0.0000  0.0000  0.0213  0.7746  0.0000
                                            0.1179 -0.6210  0.0000  0.0000
    77. (0.00043) RY*( 4) C   9           s(  0.00%)p 1.00( 25.46%)d 2.93( 74.54%)
                                            0.0000  0.0000  0.0000  0.0000  0.0000
                                            0.0000  0.0000 -0.0003 -0.5046  0.0000
                                            0.7073 -0.4951  0.0000  0.0000
    78. (0.00033) RY*( 5) C   9           s( 73.63%)p 0.03(  1.95%)d 0.33( 24.42%)
                                            0.0000 -0.0079  0.8581  0.0092 -0.0415
                                            0.0180  0.1317  0.0000  0.0000 -0.3558
                                            0.0000  0.0000 -0.0662 -0.3365
    79. (0.00008) RY*( 6) C   9           s(  4.71%)p 1.21(  5.69%)d19.00( 89.60%)
    80. (0.00003) RY*( 7) C   9           s(  6.86%)p 2.61( 17.89%)d10.96( 75.25%)
    81. (0.00002) RY*( 8) C   9           s( 10.60%)p 0.06(  0.66%)d 8.37( 88.74%)
    82. (0.00000) RY*( 9) C   9           s(  0.00%)p 1.00( 14.56%)d 5.87( 85.44%)
    83. (0.00117) RY*( 1) H  10           s( 98.37%)p 0.02(  1.63%)
                                            0.0056  0.9918  0.0646  0.1102  0.0000
    84. (0.00024) RY*( 2) H  10           s(  0.00%)p 1.00(100.00%)
                                            0.0000  0.0000  0.0000  0.0000  1.0000
    85. (0.00010) RY*( 3) H  10           s(  0.18%)p99.99( 99.82%)
    86. (0.00007) RY*( 4) H  10           s(  1.56%)p63.30( 98.44%)
    87. (0.00380) RY*( 1) C  11           s(  3.59%)p22.09( 79.27%)d 4.78( 17.14%)
                                           -0.0000  0.0315  0.1868 -0.0247 -0.6969
                                            0.0032  0.5535  0.0000  0.0000 -0.3894
                                            0.0000  0.0000  0.1088 -0.0891
    88. (0.00240) RY*( 2) C  11           s(  0.74%)p99.99( 94.50%)d 6.44(  4.76%)
                                            0.0000 -0.0097  0.0854 -0.0123  0.5731
                                           -0.0400  0.7841  0.0000  0.0000  0.1691
                                            0.0000  0.0000  0.1377 -0.0059
    89. (0.00210) RY*( 3) C  11           s(  0.00%)p 1.00( 60.04%)d 0.67( 39.96%)
                                            0.0000  0.0000  0.0000  0.0000  0.0000
                                            0.0000  0.0000  0.0213  0.7746  0.0000
                                            0.1179  0.6210  0.0000  0.0000
    90. (0.00043) RY*( 4) C  11           s(  0.00%)p 1.00( 25.46%)d 2.93( 74.54%)
                                            0.0000  0.0000  0.0000  0.0000  0.0000
                                            0.0000  0.0000 -0.0003 -0.5046  0.0000
                                            0.7073  0.4951  0.0000  0.0000
    91. (0.00033) RY*( 5) C  11           s( 73.63%)p 0.03(  1.95%)d 0.33( 24.42%)
                                            0.0000 -0.0079  0.8581  0.0092 -0.0415
                                           -0.0180 -0.1317  0.0000  0.0000  0.3558
                                            0.0000  0.0000 -0.0662 -0.3365
    92. (0.00008) RY*( 6) C  11           s(  4.71%)p 1.21(  5.69%)d19.00( 89.60%)
    93. (0.00003) RY*( 7) C  11           s(  6.86%)p 2.61( 17.89%)d10.97( 75.25%)
    94. (0.00002) RY*( 8) C  11           s( 10.60%)p 0.06(  0.66%)d 8.37( 88.74%)
    95. (0.00000) RY*( 9) C  11           s(  0.00%)p 1.00( 14.56%)d 5.87( 85.44%)
    96. (0.00117) RY*( 1) H  12           s( 98.37%)p 0.02(  1.63%)
                                            0.0056  0.9918  0.0646 -0.1102  0.0000
    97. (0.00024) RY*( 2) H  12           s(  0.00%)p 1.00(100.00%)
                                            0.0000  0.0000  0.0000  0.0000  1.0000
    98. (0.00010) RY*( 3) H  12           s(  0.18%)p99.99( 99.82%)
    99. (0.00007) RY*( 4) H  12           s(  1.56%)p63.29( 98.44%)
   100. (0.02366) BD*( 1) C   1 - C   2  
                ( 48.25%)   0.6947* C   1 s( 30.63%)p 2.26( 69.35%)d 0.00(  0.02%)
                                            0.0001 -0.5534  0.0066  0.8327 -0.0116
                                            0.0000 -0.0000 -0.0000 -0.0000 -0.0000
                                           -0.0000 -0.0000 -0.0130  0.0086
                ( 51.75%)  -0.7193* C   2 s( 35.26%)p 1.84( 64.71%)d 0.00(  0.03%)
                                           -0.0003 -0.5938 -0.0056 -0.8044 -0.0047
                                            0.0000 -0.0000 -0.0000 -0.0000 -0.0000
                                           -0.0000 -0.0000 -0.0159  0.0090
   101. (0.10192) BD*( 2) C   1 - C   2  
                ( 43.56%)   0.6600* C   1 s(  0.00%)p 1.00(100.00%)d 0.00(  0.00%)
                                           -0.0000 -0.0000 -0.0000 -0.0000 -0.0000
                                           -0.0000 -0.0000 -0.9999  0.0115 -0.0000
                                            0.0067  0.0000 -0.0000 -0.0000
                ( 56.44%)  -0.7513* C   2 s(  0.00%)p 1.00( 99.95%)d 0.00(  0.05%)
                                           -0.0000 -0.0000 -0.0000 -0.0000 -0.0000
                                           -0.0000 -0.0000 -0.9991  0.0366 -0.0000
                                           -0.0229 -0.0000 -0.0000 -0.0000
   102. (0.01791) BD*( 1) C   1 - C   5  
                ( 47.83%)   0.6916* C   1 s( 34.65%)p 1.88( 65.31%)d 0.00(  0.04%)
                                            0.0000 -0.5887 -0.0039 -0.3910  0.0205
                                            0.7067  0.0191 -0.0000 -0.0000  0.0153
                                           -0.0000 -0.0000  0.0015  0.0126
                ( 52.17%)  -0.7223* C   5 s( 36.17%)p 1.76( 63.78%)d 0.00(  0.05%)
                                           -0.0001 -0.6013 -0.0137  0.5329  0.0395
                                           -0.5934  0.0125 -0.0000 -0.0000  0.0174
                                           -0.0000 -0.0000  0.0039  0.0137
   103. (0.01791) BD*( 1) C   1 - C   7  
                ( 47.83%)   0.6916* C   1 s( 34.65%)p 1.88( 65.31%)d 0.00(  0.04%)
                                            0.0000 -0.5887 -0.0039 -0.3910  0.0205
                                           -0.7067 -0.0191 -0.0000 -0.0000 -0.0153
                                           -0.0000 -0.0000  0.0015  0.0126
                ( 52.17%)  -0.7223* C   7 s( 36.17%)p 1.76( 63.78%)d 0.00(  0.05%)
                                           -0.0001 -0.6013 -0.0137  0.5329  0.0395
                                            0.5934 -0.0125 -0.0000 -0.0000 -0.0174
                                           -0.0000 -0.0000  0.0039  0.0137
   104. (0.00228) BD*( 1) C   2 - H   3  
                ( 39.12%)   0.6255* C   2 s( 32.34%)p 2.09( 67.63%)d 0.00(  0.03%)
                                            0.0001 -0.5687  0.0018  0.4196  0.0203
                                           -0.7069 -0.0050 -0.0000 -0.0000  0.0144
                                           -0.0000 -0.0000  0.0062  0.0057
                ( 60.88%)  -0.7802* H   3 s( 99.88%)p 0.00(  0.12%)
                                           -0.9994  0.0015 -0.0175  0.0299 -0.0000
   105. (0.00228) BD*( 1) C   2 - H   4  
                ( 39.12%)   0.6255* C   2 s( 32.34%)p 2.09( 67.63%)d 0.00(  0.03%)
                                            0.0001 -0.5687  0.0018  0.4196  0.0203
                                            0.7069  0.0050 -0.0000 -0.0000 -0.0144
                                           -0.0000 -0.0000  0.0062  0.0057
                ( 60.88%)  -0.7802* H   4 s( 99.88%)p 0.00(  0.12%)
                                           -0.9994  0.0015 -0.0175 -0.0299 -0.0000
   106. (0.01312) BD*( 1) C   5 - H   6  
                ( 38.52%)   0.6206* C   5 s( 31.66%)p 2.16( 68.33%)d 0.00(  0.01%)
                                           -0.0002  0.5626 -0.0089 -0.2447  0.0076
                                           -0.7894 -0.0147 -0.0000 -0.0000  0.0076
                                           -0.0000 -0.0000 -0.0060 -0.0061
                ( 61.48%)  -0.7841* H   6 s( 99.90%)p 0.00(  0.10%)
                                            0.9995 -0.0014  0.0087  0.0309 -0.0000
   107. (0.01443) BD*( 1) C   5 - C  11  
                ( 50.14%)   0.7081* C   5 s( 31.98%)p 2.13( 67.99%)d 0.00(  0.04%)
                                           -0.0001  0.5655 -0.0008  0.8089  0.0123
                                            0.1534 -0.0439  0.0000  0.0000  0.0110
                                            0.0000  0.0000  0.0094 -0.0119
                ( 49.86%)  -0.7061* C  11 s( 30.49%)p 2.28( 69.47%)d 0.00(  0.04%)
                                           -0.0000  0.5522 -0.0042 -0.7584  0.0193
                                           -0.3430 -0.0396  0.0000  0.0000  0.0038
                                            0.0000  0.0000  0.0141 -0.0117
   108. (0.30822) BD*( 2) C   5 - C  11  
                ( 46.06%)   0.6787* C   5 s(  0.00%)p 1.00( 99.95%)d 0.00(  0.05%)
                                           -0.0000 -0.0000 -0.0000 -0.0000 -0.0000
                                           -0.0000 -0.0000 -0.9994  0.0262 -0.0000
                                           -0.0121 -0.0189 -0.0000 -0.0000
                ( 53.94%)  -0.7344* C  11 s(  0.00%)p 1.00( 99.93%)d 0.00(  0.07%)
                                           -0.0000 -0.0000 -0.0000 -0.0000 -0.0000
                                           -0.0000 -0.0000 -0.9993  0.0289 -0.0000
                                            0.0248 -0.0065 -0.0000 -0.0000
   109. (0.01312) BD*( 1) C   7 - H   8  
                ( 38.52%)   0.6206* C   7 s( 31.66%)p 2.16( 68.32%)d 0.00(  0.01%)
                                            0.0002 -0.5626  0.0089  0.2447 -0.0076
                                           -0.7894 -0.0147 -0.0000 -0.0000  0.0076
                                           -0.0000 -0.0000  0.0060  0.0061
                ( 61.48%)  -0.7841* H   8 s( 99.90%)p 0.00(  0.10%)
                                           -0.9995  0.0014 -0.0087  0.0309 -0.0000
   110. (0.01443) BD*( 1) C   7 - C   9  
                ( 50.14%)   0.7081* C   7 s( 31.98%)p 2.13( 67.99%)d 0.00(  0.04%)
                                           -0.0001  0.5655 -0.0008  0.8089  0.0123
                                           -0.1534  0.0439  0.0000  0.0000 -0.0110
                                            0.0000  0.0000  0.0094 -0.0119
                ( 49.86%)  -0.7061* C   9 s( 30.49%)p 2.28( 69.47%)d 0.00(  0.04%)
                                           -0.0000  0.5522 -0.0042 -0.7584  0.0193
                                            0.3430  0.0396  0.0000  0.0000 -0.0038
                                            0.0000  0.0000  0.0141 -0.0117
   111. (0.30822) BD*( 2) C   7 - C   9  
                ( 46.06%)   0.6787* C   7 s(  0.00%)p 1.00( 99.95%)d 0.00(  0.05%)
                                           -0.0000 -0.0000 -0.0000 -0.0000 -0.0000
                                           -0.0000 -0.0000 -0.9994  0.0262 -0.0000
                                           -0.0121  0.0189 -0.0000 -0.0000
                ( 53.94%)  -0.7344* C   9 s(  0.00%)p 1.00( 99.93%)d 0.00(  0.07%)
                                           -0.0000 -0.0000 -0.0000 -0.0000 -0.0000
                                           -0.0000 -0.0000 -0.9993  0.0289 -0.0000
                                            0.0248  0.0065 -0.0000 -0.0000
   112. (0.01497) BD*( 1) C   9 - H  10  
                ( 38.09%)   0.6172* C   9 s( 32.42%)p 2.08( 67.57%)d 0.00(  0.01%)
                                            0.0002 -0.5692  0.0120 -0.6453  0.0010
                                           -0.5092 -0.0058 -0.0000 -0.0000 -0.0085
                                           -0.0000 -0.0000 -0.0050  0.0065
                ( 61.91%)  -0.7868* H  10 s( 99.89%)p 0.00(  0.11%)
[...]
 ... and contract with generalized density number  0.
 Compute integral first derivatives.
 Leave Link  701 at Thu Apr 15 19:50:21 2021, MaxMem=  1073741824 cpu:               0.1 elap:               0.1
 (Enter /apps/gaussian/g16-c01-avx2/g16/l702.exe)
 L702 exits ... SP integral derivatives will be done elsewhere.
 Leave Link  702 at Thu Apr 15 19:50:21 2021, MaxMem=  1073741824 cpu:               0.0 elap:               0.0
 (Enter /apps/gaussian/g16-c01-avx2/g16/l703.exe)
 Integral derivatives from FoFJK, PRISM(SPDF).
 Compute integral first derivatives, UseDBF=F ICtDFT=           0.
 Calling FoFJK, ICntrl=      2127 FMM=F ISym2X=0 I1Cent= 0 IOpClX= 0 NMat=1 NMatS=1 NMatT=0.
 FoFJK:  IHMeth= 1 ICntrl=    2127 DoSepK=F KAlg= 0 I1Cent=   300000000 FoldK=F
 IRaf=         0 NMat=       1 IRICut=       1 DoRegI=T DoRafI=F ISym2E= 0 IDoP0=0 IntGTp=1.
 FoFCou: FMM=F IPFlag=           0 FMFlag=      100000 FMFlg1=         800
         NFxFlg=           0 DoJE=F BraDBF=F KetDBF=F FulRan=T
         wScrn=  0.000000 ICntrl=      2127 IOpCl=  0 I1Cent=   300000000 NGrid=           0
         NMat0=    1 NMatS0=      1 NMatT0=    0 NMatD0=    1 NMtDS0=    0 NMtDT0=    0
 Symmetry not used in FoFCou.
 Leave Link  703 at Thu Apr 15 19:50:30 2021, MaxMem=  1073741824 cpu:               9.1 elap:               9.1
 (Enter /apps/gaussian/g16-c01-avx2/g16/l716.exe)
 Dipole        = 7.52757124D-02-1.27849714D-03 2.52110128D-12
 Polarizability= 0.00000000D+00 0.00000000D+00 0.00000000D+00
                 0.00000000D+00 0.00000000D+00 0.00000000D+00
 -------------------------------------------------------------------
 Center     Atomic                   Forces (Hartrees/Bohr)
 Number     Number              X              Y              Z
 -------------------------------------------------------------------
      1        6          -0.002084627    0.003274348    0.000000000
      2        6          -0.005797566   -0.001416874    0.000000000
      3        1           0.001893400    0.000926187   -0.000000000
      4        1           0.003150529   -0.000674205   -0.000000000
      5        6          -0.001851081   -0.002026793    0.000000000
      6        1          -0.000875192    0.000733793   -0.000000000
      7        6           0.006048346    0.000701629   -0.000000000
      8        1          -0.002732334   -0.001164488    0.000000000
      9        6          -0.001342758   -0.000775682   -0.000000000
     10        1          -0.000801577    0.001684693   -0.000000000
     11        6           0.005497317   -0.001109755    0.000000000
     12        1          -0.001104458   -0.000152853   -0.000000000
 -------------------------------------------------------------------
 Cartesian Forces:  Max     0.006048346 RMS     0.002100432
 Leave Link  716 at Thu Apr 15 19:50:30 2021, MaxMem=  1073741824 cpu:               0.0 elap:               0.0
 (Enter /apps/gaussian/g16-c01-avx2/g16/l123.exe)
 IRC-IRC-IRC-IRC-IRC-IRC-IRC-IRC-IRC-IRC-IRC-IRC-IRC-IRC-IRC-IRC-IRC-IRC
 Reaction path inflection point has been passed.
   Previous lowest Hessian eigenvalue=   -0.1302658848
   Current lowest Hessian eigenvalue =    0.0024013036
 Pt 36 Step number   1 out of a maximum of  20
 Using modified Bulirsch-Stoer corrector integration.
   Using distance weighted interpolants to fit PES.
 PreDWI: IReCr0= 1 IReCr1= 1 IReCr2= 1 IReCr3= 1
 Modified Bulirsch-Stoer Extrapolation Cycles:
    EPS =    0.000010000000000
    Cycle     1 NS=    48
      PEZero:  N= 2 I= 1 D=  3.42D-04 Err=  1.84D-03
    Cycle     2 NS=    64 Truncation Error =  0.001838386
      PEZero:  N= 3 I= 2 D=  3.42D-04 Err=  7.31D-04
      PEZero:  N= 3 I= 1 D=  6.85D-04 Err=  2.62D-03
    Cycle     3 NS=    96 Truncation Error =  0.000730551
      PEZero:  N= 4 I= 3 D=  1.71D-04 Err=  8.51D-04
      PEZero:  N= 4 I= 2 D=  5.14D-04 Err=  1.87D-03
    Cycle     4 NS=   128 Truncation Error =  0.000851031
      PEZero:  N= 5 I= 4 D=  1.71D-04 Err=  9.85D-05
      PEZero:  N= 5 I= 3 D=  3.42D-04 Err=  9.99D-04
    Cycle     5 NS=   192 Truncation Error =  0.000098506
      PEZero:  N= 6 I= 5 D=  8.56D-05 Err=  6.39D-04
      PEZero:  N= 6 I= 4 D=  2.57D-04 Err=  8.90D-04
    Cycle     6 NS=   256 Truncation Error =  0.000638618
      PEZero:  N= 7 I= 6 D=  8.56D-05 Err=  2.39D-04
      PEZero:  N= 7 I= 5 D=  1.71D-04 Err=  9.97D-04
    Cycle     7 NS=   384 Truncation Error =  0.000239183
      PEZero:  N= 8 I= 7 D=  4.28D-05 Err=  4.08D-05
      PEZero:  N= 8 I= 6 D=  1.28D-04 Err=  2.94D-04
    Cycle     8 NS=   512 Truncation Error =  0.000040798
      PEZero:  N= 9 I= 8 D=  4.28D-05 Err=  9.08D-05
      PEZero:  N= 9 I= 7 D=  8.56D-05 Err=  9.88D-05
    Cycle     9 NS=   768 Truncation Error =  0.000090838
      PEZero:  N=10 I= 9 D=  2.14D-05 Err=  1.13D-04
      PEZero:  N=10 I= 8 D=  6.42D-05 Err=  2.42D-04
    Cycle    10 NS=  1024 Truncation Error =  0.000113311
      PEZero:  N=11 I=10 D=  2.14D-05 Err=  1.19D-05
      PEZero:  N=11 I= 9 D=  4.28D-05 Err=  1.31D-04
    Cycle    11 NS=  1536 Truncation Error =  0.000011863
 Maximum DWI energy   std dev =  0.000107526 at pt    21
 Maximum DWI gradient std dev =  2.831100448 at pt    46
 WARNING: Bulirsch-Stoer Method is not Converging
 SUMMARY OF CORRECTOR INTEGRATION:
   Predictor End Point Energy =  -230.746219
   Old End Point Energy       =  -230.746219
   Corrected End Point Energy =  -230.746471
   Predictor End-Start Dist.  =     0.065745
   Old End-Start Dist.        =     0.065745
   New End-Start Dist.        =     0.022345
   New End-Old End Dist.      =     0.043866
 Point Number:  36          Path Number:   1
                    CURRENT STRUCTURE
                Cartesian Coordinates (Ang):                
 ---------------------------------------------------------------------
 Center     Atomic                     Coordinates (Angstroms)
 Number     Number                        X           Y           Z
 ---------------------------------------------------------------------
      1          6                    0.783796   -0.000182   -0.000000
      2          6                    2.134472   -0.000116    0.000000
      3          1                    2.696750    0.923266    0.000000
      4          1                    2.689062   -0.928013    0.000000
      5          6                   -0.113972   -1.176733    0.000000
      6          1                    0.225996   -2.201902    0.000000
      7          6                   -0.114392    1.176907    0.000000
      8          1                    0.232959    2.200131   -0.000000
      9          6                   -1.397724    0.740926   -0.000000
     10          1                   -2.286634    1.352567   -0.000000
     11          6                   -1.398614   -0.741425   -0.000000
     12          1                   -2.283786   -1.358981    0.000000
 ---------------------------------------------------------------------
   CHANGE IN THE REACTION COORDINATE =    0.02235
   NET REACTION COORDINATE UP TO THIS POINT =    2.30816
  # OF POINTS ALONG THE PATH =  36
  # OF STEPS =   1

 PES minimum detected on this side of the pathway.
    Magnitude of the gradient =      0.0000128
 Calculation of FORWARD path complete.
 Reaction path calculation complete.
 
 Energies reported relative to the TS energy of        -230.657371
 --------------------------------------------------------------------------
    Summary of reaction path following
 --------------------------------------------------------------------------
                        Energy    RxCoord
   1                    0.00000   0.00000
   2                   -0.00326   0.04700
   3                   -0.00952   0.11303
   4                   -0.01549   0.17906
   5                   -0.02118   0.24509
   6                   -0.02661   0.31112
   7                   -0.03176   0.37716
   8                   -0.03666   0.44319
   9                   -0.04129   0.50922
  10                   -0.04568   0.57525
  11                   -0.04980   0.64128
  12                   -0.05368   0.70731
  13                   -0.05731   0.77334
  14                   -0.06070   0.83937
  15                   -0.06384   0.90540
  16                   -0.06674   0.97142
  17                   -0.06940   1.03745
  18                   -0.07183   1.10347
  19                   -0.07404   1.16949
  20                   -0.07603   1.23550
  21                   -0.07782   1.30151
  22                   -0.07941   1.36751
  23                   -0.08083   1.43351
  24                   -0.08209   1.49950
  25                   -0.08321   1.56549
  26                   -0.08420   1.63149
  27                   -0.08508   1.69749
  28                   -0.08586   1.76349
  29                   -0.08654   1.82951
  30                   -0.08714   1.89553
  31                   -0.08765   1.96155
  32                   -0.08808   2.02757
  33                   -0.08843   2.09360
  34                   -0.08869   2.15963
  35                   -0.08888   2.22538
  36                   -0.08903   2.28582
  37                   -0.08910   2.30816
 --------------------------------------------------------------------------
 
 Total number of points:                   36
 Total number of gradient calculations:    36
 Total number of Hessian calculations:      0
 IRC-IRC-IRC-IRC-IRC-IRC-IRC-IRC-IRC-IRC-IRC-IRC-IRC-IRC-IRC-IRC-IRC-IRC
 Leave Link  123 at Thu Apr 15 19:50:30 2021, MaxMem=  1073741824 cpu:               0.2 elap:               0.2
 (Enter /apps/gaussian/g16-c01-avx2/g16/l202.exe)
                          Input orientation:                          
 ---------------------------------------------------------------------
 Center     Atomic      Atomic             Coordinates (Angstroms)
 Number     Number       Type             X           Y           Z
 ---------------------------------------------------------------------
      1          6           0        0.782574   -0.001838   -0.000000
      2          6           0        2.132655    0.000198    0.000000
      3          1           0        2.691874    0.923495    0.000000
      4          1           0        2.677968   -0.931278    0.000000
      5          6           0       -0.111736   -1.176573   -0.000000
      6          1           0        0.231809   -2.201361    0.000000
      7          6           0       -0.115275    1.177923    0.000000
      8          1           0        0.243944    2.198654   -0.000000
      9          6           0       -1.396509    0.741408   -0.000000
     10          1           0       -2.287445    1.348127    0.000000
     11          6           0       -1.398288   -0.740967   -0.000000
     12          1           0       -2.281960   -1.359290    0.000000
 ---------------------------------------------------------------------
                    Distance matrix (angstroms):
                    1          2          3          4          5
     1  C    0.000000
     2  C    1.350082   0.000000
     3  H    2.121713   1.079447   0.000000
     4  H    2.111013   1.079358   1.854825   0.000000
     5  C    1.476413   2.534182   3.502930   2.800468   0.000000
     6  H    2.267431   2.908620   3.977015   2.756230   1.080839
     7  C    1.482555   2.537760   2.818656   3.500134   2.354498
     8  H    2.265456   2.898351   2.760144   3.964965   3.393916
     9  C    2.302351   3.606159   4.092436   4.404457   2.308526
    10  H    3.353718   4.621060   4.997393   5.463609   3.332839
    11  C    2.302710   3.607892   4.415865   4.080697   1.358296
    12  H    3.351723   4.619203   5.472672   4.978362   2.177902
                    6          7          8          9         10
     6  H    0.000000
     7  C    3.397061   0.000000
     8  H    4.400032   1.082095   0.000000
     9  C    3.363229   1.353553   2.194231   0.000000
    10  H    4.352643   2.178829   2.670455   1.077903   0.000000
    11  C    2.188599   2.308303   3.367239   1.482377   2.270444
    12  H    2.651060   3.336462   4.363389   2.279684   2.707423
                   11         12
    11  C    0.000000
    12  H    1.078517   0.000000
 Symmetry turned off by external request.
 Stoichiometry    C6H6
 Framework group  CS[SG(C6H6)]
 Deg. of freedom    21
 Full point group                 CS      NOp   2
 Rotational constants (GHZ):           8.2002431           3.7639463           2.5798049
 Leave Link  202 at Thu Apr 15 19:50:30 2021, MaxMem=  1073741824 cpu:               0.0 elap:               0.0
 (Enter /apps/gaussian/g16-c01-avx2/g16/l601.exe)
 Copying SCF densities to generalized density rwf, IOpCl= 0 IROHF=3.

 **********************************************************************

            Population analysis using the SCF Density.

 **********************************************************************

 Alpha  occ. eigenvalues --    0.00000   0.00000   0.00000   0.00000   0.00000
 Alpha  occ. eigenvalues --    0.00000   0.00000   0.00000   0.00000   0.00000
 Alpha  occ. eigenvalues --    0.00000   0.00000   0.00000   0.00000   0.00000
 Alpha  occ. eigenvalues --    0.00000   0.00000   0.00000   0.00000   0.00000
 Alpha  occ. eigenvalues --    0.00000
 Alpha virt. eigenvalues --    0.00000   0.00000   0.00000   0.00000   0.00000
 Alpha virt. eigenvalues --    0.00000   0.00000   0.00000   0.00000   0.00000
 Alpha virt. eigenvalues --    0.00000   0.00000   0.00000   0.00000   0.00000
 Alpha virt. eigenvalues --    0.00000   0.00000   0.00000   0.00000   0.00000
 Alpha virt. eigenvalues --    0.00000   0.00000   0.00000   0.00000   0.00000
 Alpha virt. eigenvalues --    0.00000   0.00000   0.00000   0.00000   0.00000
 Alpha virt. eigenvalues --    0.00000   0.00000   0.00000   0.00000   0.00000
 Alpha virt. eigenvalues --    0.00000   0.00000   0.00000   0.00000   0.00000
 Alpha virt. eigenvalues --    0.00000   0.00000   0.00000   0.00000   0.00000
 Alpha virt. eigenvalues --    0.00000   0.00000   0.00000   0.00000   0.00000
 Alpha virt. eigenvalues --    0.00000   0.00000   0.00000   0.00000   0.00000
 Alpha virt. eigenvalues --    0.00000   0.00000   0.00000   0.00000   0.00000
 Alpha virt. eigenvalues --    0.00000   0.00000   0.00000   0.00000   0.00000
 Alpha virt. eigenvalues --    0.00000   0.00000   0.00000   0.00000   0.00000
 Alpha virt. eigenvalues --    0.00000   0.00000   0.00000   0.00000   0.00000
 Alpha virt. eigenvalues --    0.00000   0.00000   0.00000   0.00000   0.00000
 Alpha virt. eigenvalues --    0.00000   0.00000   0.00000   0.00000   0.00000
 Alpha virt. eigenvalues --    0.00000   0.00000   0.00000   0.00000   0.00000
 Alpha virt. eigenvalues --    0.00000   0.00000   0.00000
          Condensed to atoms (all electrons):
               1          2          3          4          5          6
     1  C    4.936943   0.677224  -0.004930  -0.004156   0.407484  -0.033316
     2  C    0.677224   4.592188   0.394223   0.392838  -0.066863  -0.005331
     3  H   -0.004930   0.394223   0.611353  -0.039259   0.006748  -0.000051
     4  H   -0.004156   0.392838  -0.039259   0.613048  -0.010895   0.002099
     5  C    0.407484  -0.066863   0.006748  -0.010895   4.841506   0.425006
     6  H   -0.033316  -0.005331  -0.000051   0.002099   0.425006   0.621565
     7  C    0.409533  -0.066955  -0.010588   0.006832  -0.104557   0.006033
     8  H   -0.033169  -0.005347   0.002079  -0.000058   0.006129  -0.000047
     9  C   -0.082477   0.004267   0.000526  -0.000532  -0.080215   0.003759
    10  H    0.005043  -0.000184   0.000002   0.000006   0.006137  -0.000117
    11  C   -0.082897   0.004147  -0.000516   0.000533   0.595631  -0.029316
    12  H    0.005100  -0.000185   0.000005   0.000003  -0.031072  -0.004217
               7          8          9         10         11         12
     1  C    0.409533  -0.033169  -0.082477   0.005043  -0.082897   0.005100
     2  C   -0.066955  -0.005347   0.004267  -0.000184   0.004147  -0.000185
     3  H   -0.010588   0.002079   0.000526   0.000002  -0.000516   0.000005
     4  H    0.006832  -0.000058  -0.000532   0.000006   0.000533   0.000003
     5  C   -0.104557   0.006129  -0.080215   0.006137   0.595631  -0.031072
     6  H    0.006033  -0.000047   0.003759  -0.000117  -0.029316  -0.004217
     7  C    4.840383   0.425168   0.593880  -0.031619  -0.079533   0.006099
     8  H    0.425168   0.620830  -0.029766  -0.004109   0.003701  -0.000113
     9  C    0.593880  -0.029766   4.799815   0.427826   0.416956  -0.039273
    10  H   -0.031619  -0.004109   0.427826   0.621881  -0.039621  -0.003541
    11  C   -0.079533   0.003701   0.416956  -0.039621   4.804120   0.427513
    12  H    0.006099  -0.000113  -0.039273  -0.003541   0.427513   0.620953
 Mulliken charges:
               1
     1  C   -0.200384
     2  C    0.079977
     3  H    0.040407
     4  H    0.039540
     5  C    0.004963
     6  H    0.013933
     7  C    0.005323
     8  H    0.014702
     9  C   -0.014767
    10  H    0.018298
    11  C   -0.020718
    12  H    0.018727
 Sum of Mulliken charges =  -0.00000
 Mulliken charges with hydrogens summed into heavy atoms:
               1
     1  C   -0.200384
     2  C    0.159924
     5  C    0.018895
     7  C    0.020025
     9  C    0.003531
    11  C   -0.001992
 APT charges:
               1
     1  C   -0.666427
     2  C   -0.176062
     3  H    0.403445
     4  H    0.392538
     5  C   -0.449093
     6  H    0.392869
     7  C   -0.445147
     8  H    0.391247
     9  C   -0.409823
    10  H    0.487956
    11  C   -0.410113
    12  H    0.488612
 Sum of APT charges =  -0.00000
 APT charges with hydrogens summed into heavy atoms:
               1
     1  C   -0.666427
     2  C    0.619921
     5  C   -0.056224
     7  C   -0.053900
     9  C    0.078132
    11  C    0.078498
 Electronic spatial extent (au):  <R**2>=            497.9087
 Charge=             -0.0000 electrons
 Dipole moment (field-independent basis, Debye):
    X=              0.1913    Y=             -0.0032    Z=              0.0000  Tot=              0.1914
 Quadrupole moment (field-independent basis, Debye-Ang):
   XX=            -31.2933   YY=            -32.7348   ZZ=            -39.8086
   XY=              0.0635   XZ=              0.0000   YZ=             -0.0000
 Traceless Quadrupole moment (field-independent basis, Debye-Ang):
   XX=              3.3189   YY=              1.8775   ZZ=             -5.1964
   XY=              0.0635   XZ=              0.0000   YZ=             -0.0000
 Octapole moment (field-independent basis, Debye-Ang**2):
  XXX=             -2.8060  YYY=             -0.0581  ZZZ=             -0.0000  XYY=              1.3744
  XXY=              0.0837  XXZ=              0.0000  XZZ=             -0.5307  YZZ=              0.0226
  YYZ=              0.0000  XYZ=             -0.0000
 Hexadecapole moment (field-independent basis, Debye-Ang**3):
 XXXX=           -394.0271 YYYY=           -204.2875 ZZZZ=            -44.5372 XXXY=              0.3886
 XXXZ=              0.0000 YYYX=              0.3025 YYYZ=              0.0000 ZZZX=             -0.0000
 ZZZY=              0.0000 XXYY=            -96.2273 XXZZ=            -86.4405 YYZZ=            -49.3819
 XXYZ=             -0.0000 YYXZ=             -0.0000 ZZXY=             -0.0018
 N-N= 2.000775566096D+02 E-N=-9.374283509421D+02  KE= 2.306587702191D+02
 No NMR shielding tensors so no spin-rotation constants.
 Leave Link  601 at Thu Apr 15 19:50:30 2021, MaxMem=  1073741824 cpu:               0.1 elap:               0.1
 (Enter /apps/gaussian/g16-c01-avx2/g16/l9999.exe)

 This type of calculation cannot be archived.


 THE MORE POWERFUL THE METHOD, THE MORE CATASTROPHIC THE ERRORS.
     -- M.D. KAMEN
 Job cpu time:       0 days  1 hours 49 minutes  1.6 seconds.
 Elapsed time:       0 days  1 hours 49 minutes 36.6 seconds.
 File lengths (MBytes):  RWF=    347 Int=      0 D2E=      0 Chk=      4 Scr=      1
 Normal termination of Gaussian 16 at Thu Apr 15 19:50:31 2021.
