 Entering Gaussian System, Link 0=gdv
 Input=isop.com
 Output=isop.log
 Initial command:
 /home/don/gdv/gdv/l1.exe "/home/don/gdv/scratch/Gau-5923.inp" -scrdir="/home/don/gdv/scratch/"
 Entering Link 1 = /home/don/gdv/gdv/l1.exe PID=      5925.
  
 Copyright (c) 1988-2019, Gaussian, Inc.  All Rights Reserved.
  
 This is the private, development version of
 the Gaussian(R) DV system of programs. It is based on
 the Gaussian(R) 16 system (copyright 2016, Gaussian, Inc.),
 the Gaussian(R) 09 system (copyright 2009, Gaussian, Inc.),
 the Gaussian(R) 03 system (copyright 2003, Gaussian, Inc.),
 the Gaussian(R) 98 system (copyright 1998, Gaussian, Inc.),
 the Gaussian(R) 94 system (copyright 1995, Gaussian, Inc.),
 the Gaussian 92(TM) system (copyright 1992, Gaussian, Inc.),
 the Gaussian 90(TM) system (copyright 1990, Gaussian, Inc.),
 the Gaussian 88(TM) system (copyright 1988, Gaussian, Inc.),
 the Gaussian 86(TM) system (copyright 1986, Carnegie Mellon
 University), and the Gaussian 82(TM) system (copyright 1983,
 Carnegie Mellon University). Gaussian is a federally registered
 trademark of Gaussian, Inc.
  
 This software contains proprietary and confidential information,
 including trade secrets, belonging to Gaussian, Inc.
  
 This software is provided under written license and may be
 used, copied, transmitted, or stored only in accord with that
 written license.
  
 The following legend is applicable only to US Government
 contracts under FAR:
  
                    RESTRICTED RIGHTS LEGEND
  
 Use, reproduction and disclosure by the US Government is
 subject to restrictions as set forth in subparagraphs (a)
 and (c) of the Commercial Computer Software - Restricted
 Rights clause in FAR 52.227-19.
  
 Gaussian, Inc.
 340 Quinnipiac St., Bldg. 40, Wallingford CT 06492
  
  
 ---------------------------------------------------------------
 Warning -- This program may not be used in any manner that
 competes with the business of Gaussian, Inc. or will provide
 assistance to any competitor of Gaussian, Inc.  The licensee
 of this program is prohibited from giving any competitor of
 Gaussian, Inc. access to this program.  By using this program,
 the user acknowledges that Gaussian, Inc. is engaged in the
 business of creating and licensing software in the field of
 computational chemistry and represents and warrants to the
 licensee that it is not a competitor of Gaussian, Inc. and that
 it will not use this program in any manner prohibited above.
 ---------------------------------------------------------------
  

 Cite this work as:
 Gaussian Development Version, Revision J.05,
 M. J. Frisch, G. W. Trucks, H. B. Schlegel, G. E. Scuseria, 
 M. A. Robb, J. R. Cheeseman, G. Scalmani, V. Barone, 
 G. A. Petersson, H. Nakatsuji, X. Li, M. Caricato, A. V. Marenich, 
 J. Bloino, B. G. Janesko, R. Gomperts, B. Mennucci, H. P. Hratchian, 
 J. V. Ortiz, A. F. Izmaylov, J. L. Sonnenberg, D. Williams-Young, 
 F. Ding, F. Lipparini, F. Egidi, J. Goings, B. Peng, A. Petrone, 
 T. Henderson, D. Ranasinghe, V. G. Zakrzewski, J. Gao, N. Rega, 
 G. Zheng, W. Liang, M. Hada, M. Ehara, K. Toyota, R. Fukuda, 
 J. Hasegawa, M. Ishida, T. Nakajima, Y. Honda, O. Kitao, H. Nakai, 
 T. Vreven, K. Throssell, J. A. Montgomery, Jr., J. E. Peralta, 
 F. Ogliaro, M. J. Bearpark, J. J. Heyd, E. N. Brothers, K. N. Kudin, 
 V. N. Staroverov, T. A. Keith, R. Kobayashi, J. Normand, 
 K. Raghavachari, A. P. Rendell, J. C. Burant, S. S. Iyengar, 
 J. Tomasi, M. Cossi, J. M. Millam, M. Klene, C. Adamo, R. Cammi, 
 J. W. Ochterski, R. L. Martin, K. Morokuma, O. Farkas, 
 J. B. Foresman, and D. J. Fox, Gaussian, Inc., Wallingford CT, 2019.
 
 ******************************************
 Gaussian DV:  ES64L-GDVRevJ.05 25-Dec-2019
                 1-Nov-2021 
 ******************************************
 %mem=8gb
 %chk=isop
 -----------------------------
 #p b3lyp/6-31g* test pop=full
 -----------------------------
 1/38=1,172=1/1;
 2/12=2,17=6,18=5,40=1/2;
 3/5=1,6=6,7=1,11=2,25=1,30=1,74=-5/1,2,3;
 4//1;
 5/5=2,38=5/2;
 6/7=3,28=1/1;
 99/5=1,9=1/99;
 Leave Link    1 at Mon Nov  1 10:30:14 2021, MaxMem=  1073741824 cpu:               0.0 elap:               0.0
 (Enter /home/don/gdv/gdv/l101.exe)
 ----
 Name
 ----
 Symbolic Z-matrix:
 Charge =  0 Multiplicity = 1
 C                     0.0018    0.0419    0.36522 
 C                    -1.20447  -0.77473  -0.10344 
 C                     1.32661  -0.5594   -0.08877 
 O                    -0.03727   1.37004  -0.16598 
 H                    -0.00609   0.08411   1.46828 
 H                    -2.14485  -0.31321   0.22574 
 H                    -1.21954  -0.83468  -1.19761 
 H                    -1.17693  -1.79306   0.30188 
 H                     2.16109   0.06553   0.2444 
 H                     1.45794  -1.56668   0.32121 
 H                     1.35979  -0.61963  -1.18251 
 H                    -0.87689   1.77064   0.10844 
 
 ITRead=  0  0  0  0  0  0  0  0  0  0  0  0
 MicOpt= -1 -1 -1 -1 -1 -1 -1 -1 -1 -1 -1 -1
 NAtoms=     12 NQM=       12 NQMF=       0 NMMI=      0 NMMIF=      0
                NMic=       0 NMicF=      0.
                    Isotopes and Nuclear Properties:
 (Nuclear quadrupole moments (NQMom) in fm**2, nuclear magnetic moments (NMagM)
  in nuclear magnetons)

  Atom         1           2           3           4           5           6           7           8           9          10
 IAtWgt=          12          12          12          16           1           1           1           1           1           1
 AtmWgt=  12.0000000  12.0000000  12.0000000  15.9949146   1.0078250   1.0078250   1.0078250   1.0078250   1.0078250   1.0078250
 NucSpn=           0           0           0           0           1           1           1           1           1           1
 AtZEff=  -0.0000000  -0.0000000  -0.0000000  -0.0000000  -0.0000000  -0.0000000  -0.0000000  -0.0000000  -0.0000000  -0.0000000
 NQMom=    0.0000000   0.0000000   0.0000000   0.0000000   0.0000000   0.0000000   0.0000000   0.0000000   0.0000000   0.0000000
 NMagM=    0.0000000   0.0000000   0.0000000   0.0000000   2.7928460   2.7928460   2.7928460   2.7928460   2.7928460   2.7928460
 AtZNuc=   6.0000000   6.0000000   6.0000000   8.0000000   1.0000000   1.0000000   1.0000000   1.0000000   1.0000000   1.0000000

  Atom        11          12
 IAtWgt=           1           1
 AtmWgt=   1.0078250   1.0078250
 NucSpn=           1           1
 AtZEff=  -0.0000000  -0.0000000
 NQMom=    0.0000000   0.0000000
 NMagM=    2.7928460   2.7928460
 AtZNuc=   1.0000000   1.0000000
 Leave Link  101 at Mon Nov  1 10:30:14 2021, MaxMem=  1073741824 cpu:               0.1 elap:               0.1
 (Enter /home/don/gdv/gdv/l202.exe)
                          Input orientation:                          
 ---------------------------------------------------------------------
 Center     Atomic      Atomic             Coordinates (Angstroms)
 Number     Number       Type             X           Y           Z
 ---------------------------------------------------------------------
      1          6           0        0.001800    0.041900    0.365220
      2          6           0       -1.204470   -0.774730   -0.103440
      3          6           0        1.326610   -0.559400   -0.088770
      4          8           0       -0.037270    1.370040   -0.165980
      5          1           0       -0.006090    0.084110    1.468280
      6          1           0       -2.144850   -0.313210    0.225740
      7          1           0       -1.219540   -0.834680   -1.197610
      8          1           0       -1.176930   -1.793060    0.301880
      9          1           0        2.161090    0.065530    0.244400
     10          1           0        1.457940   -1.566680    0.321210
     11          1           0        1.359790   -0.619630   -1.182510
     12          1           0       -0.876890    1.770640    0.108440
 ---------------------------------------------------------------------
                    Distance matrix (angstroms):
                    1          2          3          4          5
     1  C    0.000000
     2  C    1.530233   0.000000
     3  C    1.524070   2.540265   0.000000
     4  O    1.430963   2.442602   2.364079   0.000000
     5  H    1.103896   2.155000   2.148162   2.079758   0.000000
     6  H    2.180290   1.098032   3.494361   2.725558   2.505207
     7  H    2.168525   1.095915   2.790732   2.706070   3.069789
     8  H    2.181856   1.096375   2.818197   3.394543   2.501024
     9  H    2.162797   3.486262   1.094485   2.589005   2.488955
    10  H    2.170210   2.809971   1.095420   3.331266   2.486817
    11  H    2.162690   2.786374   1.095900   2.635127   3.063913
    12  H    1.956163   2.575094   3.213003   0.969922   2.334918
                    6          7          8          9         10
     6  H    0.000000
     7  H    1.775966   0.000000
     8  H    1.769922   1.780106   0.000000
     9  H    4.322605   3.783970   3.821000   0.000000
    10  H    3.815809   3.164101   2.644648   1.778884   0.000000
    11  H    3.789401   2.588323   3.164696   1.774147   1.779806
    12  H    2.442112   2.934428   3.581536   3.486432   4.078530
                   11         12
    11  H    0.000000
    12  H    3.518903   0.000000
 Stoichiometry    C3H8O
 Framework group  C1[X(C3H8O)]
 Deg. of freedom    30
 Full point group                 C1      NOp   1
 Largest Abelian subgroup         C1      NOp   1
 Largest concise Abelian subgroup C1      NOp   1
                         Standard orientation:                         
 ---------------------------------------------------------------------
 Center     Atomic      Atomic             Coordinates (Angstroms)
 Number     Number       Type             X           Y           Z
 ---------------------------------------------------------------------
      1          6           0        0.001800    0.041901    0.365219
      2          6           0       -1.204461   -0.774742   -0.103441
      3          6           0        1.326616   -0.559384   -0.088771
      4          8           0       -0.037285    1.370041   -0.165981
      5          1           0       -0.006091    0.084111    1.468279
      6          1           0       -2.144847   -0.313233    0.225739
      7          1           0       -1.219531   -0.834692   -1.197611
      8          1           0       -1.176910   -1.793072    0.301879
      9          1           0        2.161089    0.065555    0.244399
     10          1           0        1.457957   -1.566663    0.321209
     11          1           0        1.359797   -0.619614   -1.182511
     12          1           0       -0.876910    1.770631    0.108439
 ---------------------------------------------------------------------
 Rotational constants (GHZ):           8.6521983           7.9888239           4.7456966
 Leave Link  202 at Mon Nov  1 10:30:14 2021, MaxMem=  1073741824 cpu:               0.0 elap:               0.0
 (Enter /home/don/gdv/gdv/l301.exe)
 Standard basis: 6-31G(d) (6D, 7F)
 Ernie: Thresh=  0.10000D-02 Tol=  0.10000D-05 Strict=F.
 There are    76 symmetry adapted cartesian basis functions of A   symmetry.
 There are    76 symmetry adapted basis functions of A   symmetry.
    76 basis functions,   144 primitive gaussians,    76 cartesian basis functions
    17 alpha electrons       17 beta electrons
       nuclear repulsion energy       134.4030766618 Hartrees.
 IExCor=  402 DFT=T Ex+Corr=B3LYP ScaHFX=  0.200000
 ScaDFX=  0.800000  0.720000  1.000000  0.810000  0.000000  0.000000
 ScaDFX=  0.000000  0.000000  0.000000  0.000000  0.000000  0.000000
 IRadAn=      5 IRanWt=     -1 IRanGd=            0 ICorTp=0 IEmpDi=  4
 NAtoms=   12 NActive=   12 NUniq=   12 SFac= 1.00D+00 NAtFMM=   60 NAOKFM=F Big=F
 Integral buffers will be    131072 words long.
 Raffenetti 2 integral format.
 Two-electron integral symmetry is turned on.
 Leave Link  301 at Mon Nov  1 10:30:14 2021, MaxMem=  1073741824 cpu:               0.0 elap:               0.0
 (Enter /home/don/gdv/gdv/l302.exe)
 NPDir=0 NMtPBC=     1 NCelOv=     1 NCel=       1 NClECP=     1 NCelD=      1
         NCelK=      1 NCelE2=     1 NClLst=     1 CellRange=     0.0.
 One-electron integrals computed using PRISM.
 One-electron integral symmetry used in STVInt
 NBasis=    76 RedAO= T EigKep=  4.35D-03  NBF=    76
 NBsUse=    76 1.00D-06 EigRej= -1.00D+00 NBFU=    76
 Precomputing XC quadrature grid using
 IXCGrd= 4 IRadAn=           5 IRanWt=          -1 IRanGd=           0 AccXCQ= 0.00D+00.
 Generated NRdTot=       0 NPtTot=      257577 NUsed=           0 NTot=          64
 NSgBfM=    76    76    76    76    76 MxSgAt=    12 MxSgA2=    12 SizInc=   0.000
 NMBTot=     2168 MaxBatPerAtom=       83 MaxMicBPerAtom=      190.
 Leave Link  302 at Mon Nov  1 10:30:14 2021, MaxMem=  1073741824 cpu:               0.2 elap:               0.2
 (Enter /home/don/gdv/gdv/l303.exe)
 DipDrv:  MaxL=1.
 Leave Link  303 at Mon Nov  1 10:30:14 2021, MaxMem=  1073741824 cpu:               0.0 elap:               0.0
 (Enter /home/don/gdv/gdv/l401.exe)
 ExpMin= 1.61D-01 ExpMax= 5.48D+03 ExpMxC= 8.25D+02 IAcc=3 IRadAn=         5 AccDes= 0.00D+00
 Harris functional with IExCor=  402 and IRadAn=       5 diagonalized for initial guess.
 HarFok:  IExCor=  402 AccDes= 0.00D+00 IRadAn=         5 IDoV= 1 UseB2=F ITyADJ=14 ICtDFT=  3500011
 FoFCou: FMM=F IPFlag=           0 FMFlag=      100000 FMFlg1=           0
         NFxFlg=           0 DoJE=T BraDBF=F KetDBF=T FulRan=T
         wScrn=  0.000000 ICntrl=       500 IOpCl=  0 I1Cent=   200000004 NGrid=           0
         NMat0=    1 NMatS0=      1 NMatT0=    0 NMatD0=    1 NMtDS0=    0 NMtDT0=    0
 Petite list used in FoFCou.
 Harris En= -194.407934187776    
 JPrj=0 DoOrth=F DoCkMO=F.
 Leave Link  401 at Mon Nov  1 10:30:16 2021, MaxMem=  1073741824 cpu:               1.2 elap:               1.2
 (Enter /home/don/gdv/gdv/l502.exe)
 Keep R1 ints in memory in canonical form, NReq=5186640.
 FoFCou: FMM=F IPFlag=           0 FMFlag=           0 FMFlg1=           0
         NFxFlg=           0 DoJE=F BraDBF=F KetDBF=F FulRan=T
         wScrn=  0.000000 ICntrl=       600 IOpCl=  0 I1Cent=           0 NGrid=           0
         NMat0=    1 NMatS0=   2926 NMatT0=    0 NMatD0=    1 NMtDS0=    0 NMtDT0=    0
 Symmetry not used in FoFCou.
 Two-electron integral symmetry not used.
 Closed shell SCF:
 Using DIIS extrapolation, IDIIS=  1040.
 NGot=  1073741824 LenX=  1069446155 LenY=  1069439938
 Requested convergence on RMS density matrix=1.00D-08 within 128 cycles.
 Requested convergence on MAX density matrix=1.00D-06.
 Requested convergence on             energy=1.00D-06.
 No special actions if energy rises.
 Integral accuracy reduced to 1.0D-05 until final iterations.

 Cycle   1  Pass 0  IDiag  1:
 E= -194.174859386886    
 DIIS: error= 5.36D-02 at cycle   1 NSaved=   1.
 NSaved= 1 IEnMin= 1 EnMin= -194.174859386886     IErMin= 1 ErrMin= 5.36D-02
 ErrMax= 5.36D-02  0.00D+00 EMaxC= 1.00D-01 BMatC= 1.81D-01 BMatP= 1.81D-01
 IDIUse=3 WtCom= 4.64D-01 WtEn= 5.36D-01
 Coeff-Com:  0.100D+01
 Coeff-En:   0.100D+01
 Coeff:      0.100D+01
 Gap=     0.256 Goal=   None    Shift=    0.000
 GapD=    0.256 DampG=1.000 DampE=0.500 DampFc=0.5000 IDamp=-1.
 Damping current iteration by 5.00D-01
 RMSDP=1.22D-02 MaxDP=1.37D-01              OVMax= 1.81D-01

 Cycle   2  Pass 0  IDiag  1:
 E= -194.251927403021     Delta-E=       -0.077068016135 Rises=F Damp=T
 DIIS: error= 8.04D-03 at cycle   2 NSaved=   2.
 NSaved= 2 IEnMin= 2 EnMin= -194.251927403021     IErMin= 2 ErrMin= 8.04D-03
 ErrMax= 8.04D-03  0.00D+00 EMaxC= 1.00D-01 BMatC= 8.18D-03 BMatP= 1.81D-01
 IDIUse=3 WtCom= 9.20D-01 WtEn= 8.04D-02
 Coeff-Com:  0.105D+00 0.895D+00
 Coeff-En:   0.158D+00 0.842D+00
 Coeff:      0.109D+00 0.891D+00
 Gap=     0.339 Goal=   None    Shift=    0.000
 RMSDP=1.88D-03 MaxDP=1.86D-02 DE=-7.71D-02 OVMax= 9.83D-02

 Cycle   3  Pass 0  IDiag  1:
 E= -194.351560906580     Delta-E=       -0.099633503559 Rises=F Damp=F
 DIIS: error= 4.43D-03 at cycle   3 NSaved=   3.
 NSaved= 3 IEnMin= 3 EnMin= -194.351560906580     IErMin= 3 ErrMin= 4.43D-03
 ErrMax= 4.43D-03  0.00D+00 EMaxC= 1.00D-01 BMatC= 2.19D-03 BMatP= 8.18D-03
 IDIUse=3 WtCom= 9.56D-01 WtEn= 4.43D-02
 Coeff-Com:  0.230D-01 0.313D+00 0.664D+00
 Coeff-En:   0.000D+00 0.000D+00 0.100D+01
 Coeff:      0.220D-01 0.299D+00 0.679D+00
 Gap=     0.330 Goal=   None    Shift=    0.000
 RMSDP=8.34D-04 MaxDP=1.29D-02 DE=-9.96D-02 OVMax= 1.34D-02

 Cycle   4  Pass 0  IDiag  1:
 E= -194.352581210002     Delta-E=       -0.001020303422 Rises=F Damp=F
 DIIS: error= 2.52D-03 at cycle   4 NSaved=   4.
 NSaved= 4 IEnMin= 4 EnMin= -194.352581210002     IErMin= 4 ErrMin= 2.52D-03
 ErrMax= 2.52D-03  0.00D+00 EMaxC= 1.00D-01 BMatC= 9.29D-04 BMatP= 2.19D-03
 IDIUse=3 WtCom= 9.75D-01 WtEn= 2.52D-02
 Coeff-Com:  0.129D-02 0.424D-01 0.395D+00 0.561D+00
 Coeff-En:   0.000D+00 0.000D+00 0.311D+00 0.689D+00
 Coeff:      0.126D-02 0.414D-01 0.393D+00 0.565D+00
 Gap=     0.333 Goal=   None    Shift=    0.000
 RMSDP=3.50D-04 MaxDP=5.57D-03 DE=-1.02D-03 OVMax= 5.54D-03

 Cycle   5  Pass 0  IDiag  1:
 E= -194.353307204774     Delta-E=       -0.000725994772 Rises=F Damp=F
 DIIS: error= 3.34D-04 at cycle   5 NSaved=   5.
 NSaved= 5 IEnMin= 5 EnMin= -194.353307204774     IErMin= 5 ErrMin= 3.34D-04
 ErrMax= 3.34D-04  0.00D+00 EMaxC= 1.00D-01 BMatC= 1.18D-05 BMatP= 9.29D-04
 IDIUse=3 WtCom= 9.97D-01 WtEn= 3.34D-03
 Coeff-Com: -0.169D-04 0.130D-02 0.109D+00 0.198D+00 0.691D+00
 Coeff-En:   0.000D+00 0.000D+00 0.000D+00 0.000D+00 0.100D+01
 Coeff:     -0.168D-04 0.129D-02 0.109D+00 0.198D+00 0.692D+00
 Gap=     0.333 Goal=   None    Shift=    0.000
 RMSDP=5.22D-05 MaxDP=6.85D-04 DE=-7.26D-04 OVMax= 7.73D-04

 Cycle   6  Pass 0  IDiag  1:
 E= -194.353316563000     Delta-E=       -0.000009358226 Rises=F Damp=F
 DIIS: error= 1.12D-04 at cycle   6 NSaved=   6.
 NSaved= 6 IEnMin= 6 EnMin= -194.353316563000     IErMin= 6 ErrMin= 1.12D-04
 ErrMax= 1.12D-04  0.00D+00 EMaxC= 1.00D-01 BMatC= 1.13D-06 BMatP= 1.18D-05
 IDIUse=3 WtCom= 9.99D-01 WtEn= 1.12D-03
 Coeff-Com:  0.758D-04-0.101D-02 0.388D-01 0.757D-01 0.340D+00 0.547D+00
 Coeff-En:   0.000D+00 0.000D+00 0.000D+00 0.000D+00 0.000D+00 0.100D+01
 Coeff:      0.757D-04-0.101D-02 0.387D-01 0.756D-01 0.339D+00 0.547D+00
 Gap=     0.333 Goal=   None    Shift=    0.000
 RMSDP=1.30D-05 MaxDP=2.82D-04 DE=-9.36D-06 OVMax= 2.27D-04

 Cycle   7  Pass 0  IDiag  1:
 E= -194.353317574825     Delta-E=       -0.000001011825 Rises=F Damp=F
 DIIS: error= 1.46D-05 at cycle   7 NSaved=   7.
 NSaved= 7 IEnMin= 7 EnMin= -194.353317574825     IErMin= 7 ErrMin= 1.46D-05
 ErrMax= 1.46D-05  0.00D+00 EMaxC= 1.00D-01 BMatC= 2.49D-08 BMatP= 1.13D-06
 IDIUse=1 WtCom= 1.00D+00 WtEn= 0.00D+00
 Coeff-Com:  0.562D-04-0.498D-03 0.749D-02 0.155D-01 0.805D-01 0.196D+00
 Coeff-Com:  0.701D+00
 Coeff:      0.562D-04-0.498D-03 0.749D-02 0.155D-01 0.805D-01 0.196D+00
 Coeff:      0.701D+00
 Gap=     0.333 Goal=   None    Shift=    0.000
 RMSDP=2.57D-06 MaxDP=3.34D-05 DE=-1.01D-06 OVMax= 3.61D-05

 Initial convergence to 1.0D-05 achieved.  Increase integral accuracy.
 Cycle   8  Pass 1  IDiag  1:
 E= -194.353310456549     Delta-E=        0.000007118276 Rises=F Damp=F
 DIIS: error= 1.97D-06 at cycle   1 NSaved=   1.
 NSaved= 1 IEnMin= 1 EnMin= -194.353310456549     IErMin= 1 ErrMin= 1.97D-06
 ErrMax= 1.97D-06  0.00D+00 EMaxC= 1.00D-01 BMatC= 8.67D-10 BMatP= 8.67D-10
 IDIUse=1 WtCom= 1.00D+00 WtEn= 0.00D+00
 Coeff-Com:  0.100D+01
 Coeff:      0.100D+01
 Gap=     0.333 Goal=   None    Shift=    0.000
 RMSDP=2.57D-06 MaxDP=3.34D-05 DE= 7.12D-06 OVMax= 1.04D-05

 Cycle   9  Pass 1  IDiag  1:
 E= -194.353310457372     Delta-E=       -0.000000000823 Rises=F Damp=F
 DIIS: error= 1.51D-06 at cycle   2 NSaved=   2.
 NSaved= 2 IEnMin= 2 EnMin= -194.353310457372     IErMin= 2 ErrMin= 1.51D-06
 ErrMax= 1.51D-06  0.00D+00 EMaxC= 1.00D-01 BMatC= 2.51D-10 BMatP= 8.67D-10
 IDIUse=1 WtCom= 1.00D+00 WtEn= 0.00D+00
 Coeff-Com:  0.315D+00 0.685D+00
 Coeff:      0.315D+00 0.685D+00
 Gap=     0.333 Goal=   None    Shift=    0.000
 RMSDP=3.10D-07 MaxDP=3.81D-06 DE=-8.23D-10 OVMax= 4.70D-06

 Cycle  10  Pass 1  IDiag  1:
 E= -194.353310457594     Delta-E=       -0.000000000222 Rises=F Damp=F
 DIIS: error= 5.40D-07 at cycle   3 NSaved=   3.
 NSaved= 3 IEnMin= 3 EnMin= -194.353310457594     IErMin= 3 ErrMin= 5.40D-07
 ErrMax= 5.40D-07  0.00D+00 EMaxC= 1.00D-01 BMatC= 4.39D-11 BMatP= 2.51D-10
 IDIUse=1 WtCom= 1.00D+00 WtEn= 0.00D+00
 Coeff-Com:  0.455D-01 0.298D+00 0.657D+00
 Coeff:      0.455D-01 0.298D+00 0.657D+00
 Gap=     0.333 Goal=   None    Shift=    0.000
 RMSDP=8.93D-08 MaxDP=1.43D-06 DE=-2.22D-10 OVMax= 1.36D-06

 Cycle  11  Pass 1  IDiag  1:
 E= -194.353310457629     Delta-E=       -0.000000000035 Rises=F Damp=F
 DIIS: error= 1.84D-07 at cycle   4 NSaved=   4.
 NSaved= 4 IEnMin= 4 EnMin= -194.353310457629     IErMin= 4 ErrMin= 1.84D-07
 ErrMax= 1.84D-07  0.00D+00 EMaxC= 1.00D-01 BMatC= 4.72D-12 BMatP= 4.39D-11
 IDIUse=1 WtCom= 1.00D+00 WtEn= 0.00D+00
 Coeff-Com: -0.974D-02 0.775D-01 0.311D+00 0.621D+00
 Coeff:     -0.974D-02 0.775D-01 0.311D+00 0.621D+00
 Gap=     0.333 Goal=   None    Shift=    0.000
 RMSDP=2.64D-08 MaxDP=4.65D-07 DE=-3.51D-11 OVMax= 3.98D-07

 Cycle  12  Pass 1  IDiag  1:
 E= -194.353310457634     Delta-E=       -0.000000000005 Rises=F Damp=F
 DIIS: error= 4.46D-08 at cycle   5 NSaved=   5.
 NSaved= 5 IEnMin= 5 EnMin= -194.353310457634     IErMin= 5 ErrMin= 4.46D-08
 ErrMax= 4.46D-08  0.00D+00 EMaxC= 1.00D-01 BMatC= 3.44D-13 BMatP= 4.72D-12
 IDIUse=1 WtCom= 1.00D+00 WtEn= 0.00D+00
 Coeff-Com: -0.610D-02 0.306D-01 0.139D+00 0.330D+00 0.506D+00
 Coeff:     -0.610D-02 0.306D-01 0.139D+00 0.330D+00 0.506D+00
 Gap=     0.333 Goal=   None    Shift=    0.000
 RMSDP=7.53D-09 MaxDP=1.10D-07 DE=-4.89D-12 OVMax= 1.27D-07

 SCF Done:  E(RB3LYP) =  -194.353310458     A.U. after   12 cycles
            NFock= 12  Conv=0.75D-08     -V/T= 2.0094
 KE= 1.925401565867D+02 PE=-7.214590538586D+02 EE= 2.001625101525D+02
 Leave Link  502 at Mon Nov  1 10:30:27 2021, MaxMem=  1073741824 cpu:              11.5 elap:              11.6
 (Enter /home/don/gdv/gdv/l601.exe)
 Copying SCF densities to generalized density rwf, IOpCl= 0 IROHF=0.

 **********************************************************************

            Population analysis using the SCF Density.

 **********************************************************************

 Orbital symmetries:
       Occupied  (A) (A) (A) (A) (A) (A) (A) (A) (A) (A) (A) (A)
                 (A) (A) (A) (A) (A)
       Virtual   (A) (A) (A) (A) (A) (A) (A) (A) (A) (A) (A) (A)
                 (A) (A) (A) (A) (A) (A) (A) (A) (A) (A) (A) (A)
                 (A) (A) (A) (A) (A) (A) (A) (A) (A) (A) (A) (A)
                 (A) (A) (A) (A) (A) (A) (A) (A) (A) (A) (A) (A)
                 (A) (A) (A) (A) (A) (A) (A) (A) (A) (A) (A)
 The electronic state is 1-A.
 Alpha  occ. eigenvalues --  -19.13524 -10.23287 -10.17578 -10.16962  -1.00844
 Alpha  occ. eigenvalues --   -0.76575  -0.68704  -0.58106  -0.50599  -0.44777
 Alpha  occ. eigenvalues --   -0.42898  -0.38771  -0.37783  -0.36161  -0.35163
 Alpha  occ. eigenvalues --   -0.31745  -0.26069
 Alpha virt. eigenvalues --    0.07206   0.12042   0.14463   0.14636   0.15954
 Alpha virt. eigenvalues --    0.17373   0.19466   0.19537   0.22753   0.24150
 Alpha virt. eigenvalues --    0.26534   0.50884   0.53045   0.56675   0.58154
 Alpha virt. eigenvalues --    0.58520   0.65000   0.70555   0.71814   0.76614
 Alpha virt. eigenvalues --    0.81633   0.86520   0.88634   0.89517   0.91133
 Alpha virt. eigenvalues --    0.91415   0.93059   0.96813   0.98786   1.03831
 Alpha virt. eigenvalues --    1.04180   1.17272   1.36340   1.41216   1.42086
 Alpha virt. eigenvalues --    1.50580   1.69491   1.74958   1.76790   1.81876
 Alpha virt. eigenvalues --    1.85574   1.95412   1.98973   2.05647   2.12241
 Alpha virt. eigenvalues --    2.18394   2.23473   2.25100   2.27779   2.40890
 Alpha virt. eigenvalues --    2.51102   2.53816   2.56667   2.71045   2.87194
 Alpha virt. eigenvalues --    3.74289   4.17399   4.28942   4.50578
     Molecular Orbital Coefficients:
                           1         2         3         4         5
                           O         O         O         O         O
     Eigenvalues --   -19.13524 -10.23287 -10.17578 -10.16962  -1.00844
   1 1   C  1S          0.00001   0.99321  -0.00199  -0.00188  -0.07651
   2        2S          0.00018   0.04954  -0.00024  -0.00021   0.14775
   3        2PX         0.00005  -0.00004   0.00009  -0.00010  -0.00761
   4        2PY         0.00030   0.00043   0.00003   0.00001   0.09186
   5        2PZ        -0.00017  -0.00031   0.00006   0.00006  -0.03668
   6        3S         -0.00153  -0.02102   0.00349   0.00355   0.04511
   7        3PX        -0.00040  -0.00019  -0.00179   0.00187  -0.00973
   8        3PY        -0.00079   0.00104  -0.00102  -0.00077  -0.00158
   9        3PZ         0.00047   0.00172  -0.00035  -0.00023   0.01170
  10        4XX         0.00006  -0.00871  -0.00029  -0.00032  -0.00819
  11        4YY         0.00027  -0.00851  -0.00022  -0.00020   0.01492
  12        4ZZ         0.00007  -0.00851  -0.00011  -0.00011  -0.00410
  13        4XY         0.00001  -0.00002  -0.00010   0.00007  -0.00252
  14        4XZ         0.00000  -0.00001  -0.00008   0.00010   0.00076
  15        4YZ        -0.00011  -0.00006  -0.00005  -0.00001  -0.01004
  16 2   C  1S          0.00002   0.00176   0.99290   0.00059  -0.01739
  17        2S          0.00013  -0.00030   0.05009  -0.00026   0.03160
  18        2PX         0.00001   0.00001  -0.00003  -0.00014   0.01488
  19        2PY         0.00002  -0.00006  -0.00003   0.00004   0.01749
  20        2PZ         0.00001  -0.00002   0.00001   0.00004   0.00362
  21        3S         -0.00032   0.00572  -0.01683   0.00102   0.01827
  22        3PX         0.00002   0.00214  -0.00073   0.00065   0.00424
  23        3PY        -0.00012   0.00164  -0.00037  -0.00020   0.00681
  24        3PZ        -0.00016   0.00046  -0.00020  -0.00026  -0.00400
  25        4XX         0.00002  -0.00025  -0.00921  -0.00004   0.00230
  26        4YY        -0.00004  -0.00023  -0.00916  -0.00010   0.00178
  27        4ZZ         0.00002  -0.00016  -0.00915  -0.00011  -0.00052
  28        4XY        -0.00003  -0.00009  -0.00006   0.00001   0.00312
  29        4XZ        -0.00002  -0.00011  -0.00004  -0.00001   0.00072
  30        4YZ         0.00001  -0.00009  -0.00003   0.00002   0.00096
  31 3   C  1S          0.00001   0.00165  -0.00072   0.99291  -0.01702
  32        2S          0.00013  -0.00029  -0.00031   0.05012   0.02926
  33        2PX        -0.00005  -0.00000   0.00013  -0.00009  -0.01829
  34        2PY         0.00009  -0.00005   0.00006  -0.00002   0.01479
  35        2PZ        -0.00002  -0.00002   0.00003   0.00000   0.00324
  36        3S          0.00036   0.00574   0.00100  -0.01693   0.03145
  37        3PX        -0.00000  -0.00242  -0.00060   0.00091  -0.00817
  38        3PY        -0.00033   0.00119  -0.00028  -0.00033   0.00837
  39        3PZ         0.00020   0.00052  -0.00021  -0.00016  -0.00004
  40        4XX        -0.00001  -0.00026  -0.00002  -0.00921   0.00317
  41        4YY        -0.00006  -0.00020  -0.00008  -0.00913   0.00102
  42        4ZZ         0.00001  -0.00014  -0.00010  -0.00914  -0.00064
  43        4XY         0.00004   0.00009  -0.00000   0.00004  -0.00326
  44        4XZ        -0.00000   0.00011   0.00000   0.00005  -0.00091
  45        4YZ         0.00001  -0.00007   0.00003  -0.00002   0.00084
  46 4   O  1S          0.99279  -0.00016  -0.00005  -0.00002  -0.20034
  47        2S          0.02603  -0.00046  -0.00022  -0.00014   0.44313
  48        2PX        -0.00080  -0.00001   0.00005  -0.00007  -0.07992
  49        2PY        -0.00029   0.00013   0.00006   0.00007  -0.05085
  50        2PZ         0.00055  -0.00004   0.00000   0.00002   0.06230
  51        3S          0.01128   0.00395   0.00067   0.00025   0.43385
  52        3PX         0.00022   0.00002  -0.00013   0.00030  -0.03876
  53        3PY        -0.00042  -0.00089  -0.00016  -0.00036  -0.02843
  54        3PZ         0.00006   0.00011   0.00003  -0.00010   0.03124
  55        4XX        -0.00797  -0.00027  -0.00010  -0.00005   0.00992
  56        4YY        -0.00800  -0.00078  -0.00009   0.00001   0.00733
  57        4ZZ        -0.00796  -0.00030  -0.00022  -0.00014  -0.00529
  58        4XY        -0.00001   0.00004   0.00006  -0.00009  -0.00778
  59        4XZ         0.00003  -0.00001   0.00005  -0.00005  -0.00947
  60        4YZ         0.00004   0.00033  -0.00001  -0.00002  -0.00448
  61 5   H  1S          0.00004   0.00007  -0.00015  -0.00016   0.02618
  62        2S         -0.00001   0.00269   0.00001  -0.00003  -0.00148
  63 6   H  1S         -0.00001  -0.00020  -0.00008  -0.00000   0.00698
  64        2S          0.00025  -0.00011   0.00264   0.00040   0.00517
  65 7   H  1S          0.00004  -0.00026  -0.00004  -0.00008   0.00687
  66        2S         -0.00007  -0.00005   0.00279  -0.00037  -0.00024
  67 8   H  1S          0.00003  -0.00016  -0.00006  -0.00007   0.00519
  68        2S         -0.00007   0.00009   0.00275  -0.00031   0.00111
  69 9   H  1S          0.00007  -0.00020  -0.00001  -0.00005   0.00636
  70        2S         -0.00004  -0.00006   0.00043   0.00262   0.00141
  71 10  H  1S         -0.00002  -0.00016  -0.00007  -0.00006   0.00456
  72        2S         -0.00035   0.00004  -0.00030   0.00270  -0.00021
  73 11  H  1S          0.00006  -0.00024  -0.00008  -0.00002   0.00620
  74        2S          0.00002  -0.00000  -0.00034   0.00282   0.00107
  75 12  H  1S          0.00044  -0.00005  -0.00010   0.00009   0.12804
  76        2S         -0.00109   0.00020  -0.00008   0.00025   0.00037
                           6         7         8         9        10
                           O         O         O         O         O
     Eigenvalues --    -0.76575  -0.68704  -0.58106  -0.50599  -0.44777
   1 1   C  1S         -0.12221   0.00636  -0.12361  -0.02673  -0.03299
   2        2S          0.24087  -0.01351   0.26161   0.05361   0.07730
   3        2PX         0.01272  -0.16243   0.00020  -0.05835  -0.09016
   4        2PY        -0.09301  -0.02274   0.08246  -0.14074  -0.18923
   5        2PZ        -0.01162   0.00204   0.07920   0.26308  -0.17985
   6        3S          0.19341  -0.01390   0.24917   0.05838   0.06046
   7        3PX        -0.00019  -0.04432  -0.01026  -0.04015  -0.03354
   8        3PY        -0.02352  -0.00220   0.01496  -0.04441  -0.07686
   9        3PZ         0.00175   0.00367   0.03529   0.10033  -0.05941
  10        4XX         0.00522  -0.00055  -0.01554   0.00200  -0.00187
  11        4YY        -0.01128   0.00101  -0.00493  -0.01230  -0.00469
  12        4ZZ        -0.00177   0.00001   0.00436   0.00797  -0.00276
  13        4XY         0.00247   0.01033   0.00360  -0.00701  -0.00496
  14        4XZ        -0.00116   0.00836  -0.00082   0.00232   0.00284
  15        4YZ         0.00579   0.00172  -0.00542   0.01186   0.00714
  16 2   C  1S         -0.11375  -0.14449   0.06055   0.01893   0.01693
  17        2S          0.21664   0.27869  -0.11809  -0.03704  -0.03337
  18        2PX         0.04465  -0.02846   0.08509   0.03656   0.26992
  19        2PY         0.01531  -0.00024   0.07356   0.00526   0.07401
  20        2PZ         0.01508   0.00264   0.05612   0.13478  -0.07144
  21        3S          0.17831   0.26722  -0.13756  -0.05920  -0.04288
  22        3PX         0.00488  -0.01256   0.02166   0.01410   0.12009
  23        3PY        -0.00354  -0.00176   0.01856  -0.00143   0.03754
  24        3PZ         0.00349  -0.00050   0.01987   0.05231  -0.03995
  25        4XX         0.00301  -0.00348   0.00516   0.00202   0.00076
  26        4YY        -0.00061   0.00073   0.00033   0.00118  -0.00481
  27        4ZZ        -0.00063   0.00107  -0.00273  -0.00409   0.00014
  28        4XY         0.00195  -0.00350   0.00841  -0.00048   0.01114
  29        4XZ         0.00153  -0.00199   0.00536   0.00560   0.00531
  30        4YZ         0.00058  -0.00077   0.00425   0.00227   0.00079
  31 3   C  1S         -0.11276   0.13510   0.08479  -0.00675   0.00677
  32        2S          0.21504  -0.26195  -0.16664   0.00935  -0.01434
  33        2PX        -0.05045  -0.01574  -0.10922   0.01538  -0.19336
  34        2PY         0.00974  -0.00982   0.07733  -0.08947  -0.11699
  35        2PZ         0.01501  -0.00437   0.05799   0.10697  -0.10907
  36        3S          0.17663  -0.24043  -0.17677   0.03374  -0.01223
  37        3PX        -0.00608  -0.01299  -0.03370   0.00232  -0.08579
  38        3PY        -0.00576   0.00273   0.02766  -0.03501  -0.05469
  39        3PZ         0.00459  -0.00056   0.02232   0.04955  -0.05185
  40        4XX         0.00344   0.00382   0.00843   0.00002   0.00153
  41        4YY        -0.00133  -0.00162  -0.00269   0.00235  -0.00542
  42        4ZZ        -0.00080  -0.00108  -0.00394  -0.00133   0.00319
  43        4XY        -0.00115  -0.00163  -0.00785   0.00202  -0.00728
  44        4XZ        -0.00177  -0.00152  -0.00683  -0.00460  -0.00265
  45        4YZ         0.00033   0.00023   0.00405  -0.00153  -0.00521
  46 4   O  1S          0.06102   0.00500   0.02895   0.02838   0.01313
  47        2S         -0.13849  -0.01088  -0.06621  -0.06413  -0.03213
  48        2PX         0.06194  -0.05414   0.12437  -0.23280  -0.16360
  49        2PY        -0.08292   0.01905  -0.21574   0.25698   0.03718
  50        2PZ        -0.00674  -0.00095   0.05842   0.09183  -0.09960
  51        3S         -0.16576  -0.01521  -0.09203  -0.10365  -0.04014
  52        3PX         0.02945  -0.02406   0.06196  -0.11989  -0.09856
  53        3PY        -0.03666   0.00617  -0.10874   0.12645   0.00924
  54        3PZ        -0.00363  -0.00086   0.03139   0.05710  -0.06089
  55        4XX        -0.00733   0.00319  -0.01385   0.01644   0.00914
  56        4YY         0.00752  -0.00132   0.01061  -0.00982   0.00276
  57        4ZZ         0.00185  -0.00029   0.00464   0.00562  -0.00800
  58        4XY         0.00553   0.00309   0.00896  -0.00613   0.00227
  59        4XZ         0.00405  -0.00192   0.00344  -0.01133  -0.00203
  60        4YZ        -0.00485   0.00073  -0.01181   0.00253   0.00555
  61 5   H  1S          0.06957  -0.00337   0.13423   0.15677  -0.07209
  62        2S          0.01046  -0.00264   0.05562   0.10046  -0.06835
  63 6   H  1S          0.06089   0.10908  -0.06116  -0.00783  -0.14760
  64        2S          0.01096   0.03337  -0.03150   0.00462  -0.10590
  65 7   H  1S          0.06456   0.09645  -0.07686  -0.08834   0.02140
  66        2S          0.01295   0.02379  -0.03557  -0.05575   0.01908
  67 8   H  1S          0.06814   0.09854  -0.06989   0.00821  -0.06830
  68        2S          0.01241   0.02672  -0.03681   0.01027  -0.04342
  69 9   H  1S          0.05917  -0.09858  -0.07621   0.00123  -0.14974
  70        2S          0.00981  -0.02623  -0.03410  -0.00369  -0.10879
  71 10  H  1S          0.06655  -0.08962  -0.09676   0.07031   0.01731
  72        2S          0.01060  -0.02174  -0.04679   0.04291   0.01035
  73 11  H  1S          0.06344  -0.08885  -0.09720  -0.04877   0.05704
  74        2S          0.01283  -0.02242  -0.04247  -0.03407   0.04120
  75 12  H  1S         -0.07703   0.02429  -0.11961   0.17281   0.06511
  76        2S         -0.01428   0.01073  -0.05796   0.10456   0.03903
                          11        12        13        14        15
                           O         O         O         O         O
     Eigenvalues --    -0.42898  -0.38771  -0.37783  -0.36161  -0.35163
   1 1   C  1S         -0.00713   0.00922  -0.01597   0.00708  -0.00099
   2        2S          0.01366  -0.01958   0.03330  -0.02267   0.00672
   3        2PX        -0.20467  -0.11019   0.04687  -0.08246  -0.18505
   4        2PY         0.11140   0.01668  -0.09274   0.22078   0.00135
   5        2PZ        -0.03248  -0.03213   0.03531   0.10982  -0.14674
   6        3S          0.01886  -0.02952   0.05430   0.00188  -0.01303
   7        3PX        -0.11016  -0.04934   0.01587  -0.06346  -0.07293
   8        3PY         0.06002  -0.00357  -0.01488   0.11191  -0.01840
   9        3PZ        -0.00659  -0.01143   0.00370   0.05811  -0.05527
  10        4XX         0.00415  -0.00343   0.00715  -0.01887   0.00438
  11        4YY        -0.00357   0.00814  -0.01532   0.01825   0.00598
  12        4ZZ        -0.00077  -0.00386   0.00595   0.00544  -0.01213
  13        4XY        -0.00492   0.00662   0.00407  -0.00079   0.00561
  14        4XZ         0.00431  -0.00963  -0.00595   0.00133   0.00787
  15        4YZ        -0.00267  -0.00648   0.00971   0.00164  -0.00855
  16 2   C  1S          0.00582   0.00263  -0.00236   0.00537  -0.01380
  17        2S         -0.00892  -0.00442   0.00493  -0.00775   0.02800
  18        2PX        -0.08893  -0.01374   0.05169   0.08042   0.22643
  19        2PY         0.31990  -0.07538  -0.02802  -0.21247  -0.07175
  20        2PZ         0.00583   0.36399   0.01347  -0.14505   0.11339
  21        3S         -0.03001  -0.01768   0.01063  -0.03374   0.06040
  22        3PX        -0.03949  -0.00337   0.02311   0.04192   0.10482
  23        3PY         0.14334  -0.03509  -0.02381  -0.12566  -0.01182
  24        3PZ        -0.00334   0.18102   0.01597  -0.07699   0.05010
  25        4XX         0.00863   0.00522  -0.00102  -0.01723  -0.00898
  26        4YY        -0.00827   0.01425  -0.00085   0.00851   0.01166
  27        4ZZ        -0.00259  -0.02062   0.00066   0.01187  -0.00819
  28        4XY        -0.00147  -0.00101   0.00173   0.00482   0.01048
  29        4XZ        -0.00395  -0.00285   0.00172   0.00433   0.00405
  30        4YZ         0.01142  -0.00567  -0.00069  -0.00357  -0.00587
  31 3   C  1S         -0.01535   0.00006  -0.00476   0.00920   0.00492
  32        2S          0.02688  -0.00169   0.01152  -0.02130  -0.01052
  33        2PX         0.14469  -0.00943  -0.00485   0.11462   0.23477
  34        2PY        -0.02083  -0.09585   0.36770  -0.10150   0.10709
  35        2PZ        -0.11029  -0.22347  -0.20694  -0.17012   0.17566
  36        3S          0.07877   0.00461   0.01804  -0.01427  -0.01661
  37        3PX         0.06151  -0.00680   0.00180   0.04229   0.12001
  38        3PY        -0.01672  -0.03268   0.15825  -0.06816   0.05232
  39        3PZ        -0.03631  -0.11701  -0.09289  -0.07803   0.08542
  40        4XX        -0.00259  -0.00785   0.00926  -0.00818   0.01305
  41        4YY        -0.00111  -0.00214  -0.02142   0.00140   0.00397
  42        4ZZ         0.00634   0.01170   0.01110   0.01176  -0.01420
  43        4XY         0.00331  -0.00272   0.00834   0.00055   0.01247
  44        4XZ         0.00430  -0.00149  -0.00142   0.00020   0.01044
  45        4YZ         0.00024  -0.00259   0.01513   0.00098   0.00031
  46 4   O  1S          0.04428  -0.01954   0.02399   0.02810   0.00809
  47        2S         -0.09048   0.04136  -0.05085  -0.05047  -0.01878
  48        2PX        -0.17680   0.07946  -0.09181  -0.07679  -0.13692
  49        2PY        -0.14652  -0.06803   0.16423  -0.15414  -0.15649
  50        2PZ         0.06141  -0.04165   0.00866   0.29810  -0.07137
  51        3S         -0.19840   0.09328  -0.12406  -0.14099  -0.01690
  52        3PX        -0.10555   0.04922  -0.04881  -0.04923  -0.09549
  53        3PY        -0.09014  -0.04176   0.10523  -0.08829  -0.11032
  54        3PZ         0.03102  -0.02463   0.00244   0.19798  -0.04693
  55        4XX         0.01125  -0.00740   0.01141   0.00174   0.00614
  56        4YY         0.00388   0.00094  -0.00143  -0.00057   0.00328
  57        4ZZ         0.00351  -0.00300   0.00292   0.01613  -0.00823
  58        4XY         0.01439   0.00276  -0.00846   0.00848   0.01117
  59        4XZ        -0.00738   0.00189  -0.00360  -0.01277  -0.00157
  60        4YZ        -0.00471  -0.00132   0.00508  -0.00981  -0.00168
  61 5   H  1S         -0.00842  -0.03056   0.04055   0.06821  -0.10032
  62        2S         -0.01466  -0.02503   0.03643   0.06390  -0.10431
  63 6   H  1S          0.12742   0.05604  -0.03068  -0.15093  -0.12658
  64        2S          0.11349   0.04892  -0.02622  -0.13146  -0.13223
  65 7   H  1S         -0.01809  -0.23601  -0.00228   0.10601  -0.07026
  66        2S         -0.01454  -0.18650   0.00469   0.09356  -0.07943
  67 8   H  1S         -0.18860   0.13502   0.01660   0.10046   0.10039
  68        2S         -0.14559   0.11949  -0.00519   0.09048   0.10005
  69 9   H  1S          0.05179  -0.08457   0.10052  -0.02580   0.20044
  70        2S          0.02602  -0.06923   0.08343  -0.01609   0.17588
  71 10  H  1S          0.00758   0.00616  -0.27924   0.02325  -0.00550
  72        2S         -0.01470   0.01792  -0.25887   0.02018   0.00078
  73 11  H  1S          0.08329   0.14264   0.12958   0.11536  -0.13107
  74        2S          0.05718   0.10661   0.10914   0.10362  -0.12135
  75 12  H  1S          0.03744  -0.05613   0.08627   0.02229   0.00589
  76        2S          0.02976  -0.04662   0.07624  -0.00763  -0.01313
                          16        17        18        19        20
                           O         O         V         V         V
     Eigenvalues --    -0.31745  -0.26069   0.07206   0.12042   0.14463
   1 1   C  1S          0.01044  -0.00248   0.02912  -0.03757   0.01128
   2        2S         -0.03274   0.01236  -0.01846   0.07586  -0.02657
   3        2PX        -0.25322  -0.07761   0.00641  -0.00265   0.00252
   4        2PY        -0.06595  -0.07655   0.09175   0.14574  -0.14574
   5        2PZ         0.18187  -0.16269  -0.13862   0.02354  -0.00031
   6        3S         -0.00171  -0.00169  -0.59947   0.47025  -0.04902
   7        3PX        -0.05456  -0.01364  -0.01947  -0.02940  -0.13945
   8        3PY        -0.02412   0.04024   0.16970   0.28357  -0.05330
   9        3PZ         0.04872  -0.02489  -0.23690   0.15491  -0.05886
  10        4XX        -0.00565   0.00902   0.00441   0.00939  -0.02325
  11        4YY        -0.00913   0.01570  -0.00211  -0.01344   0.02506
  12        4ZZ         0.01778  -0.02640   0.00920   0.00360   0.00137
  13        4XY         0.01868   0.01298   0.00468   0.00396  -0.00068
  14        4XZ         0.00350  -0.00053  -0.00424  -0.00438  -0.00300
  15        4YZ         0.00144   0.01480   0.00450   0.00781  -0.00018
  16 2   C  1S         -0.01654  -0.03037   0.05704  -0.06888   0.02555
  17        2S          0.03297   0.06425  -0.07214   0.09102  -0.03501
  18        2PX         0.16172   0.13047   0.11836  -0.04323   0.15342
  19        2PY         0.10409   0.13451   0.03427  -0.06960  -0.26043
  20        2PZ        -0.06125   0.05961  -0.01859  -0.07873  -0.02145
  21        3S          0.07926   0.18853  -0.81893   1.11221  -0.35613
  22        3PX         0.07890   0.10782   0.40322  -0.19638   0.46178
  23        3PY         0.05631   0.02351   0.15089  -0.14833  -0.83867
  24        3PZ         0.00398   0.04136   0.00159  -0.27462  -0.03281
  25        4XX        -0.00756   0.00740  -0.00079  -0.01564   0.01479
  26        4YY        -0.00659  -0.00538   0.01328   0.00808  -0.00983
  27        4ZZ         0.00966  -0.00598   0.00264  -0.00673   0.00031
  28        4XY         0.00528   0.00180  -0.00166   0.00668  -0.00585
  29        4XZ         0.00809   0.00038  -0.00488   0.00312  -0.00117
  30        4YZ         0.00671   0.00287  -0.00291   0.00104   0.00561
  31 3   C  1S          0.02745  -0.00410   0.04229  -0.07944  -0.02499
  32        2S         -0.05592   0.00726  -0.06387   0.09672   0.00315
  33        2PX         0.23154  -0.00542  -0.03134   0.10629   0.02842
  34        2PY        -0.08046   0.00978   0.04727  -0.03602  -0.22099
  35        2PZ        -0.08928   0.03285  -0.01159  -0.06944  -0.02184
  36        3S         -0.15899   0.04094  -0.49857   1.32045   0.64063
  37        3PX         0.12803  -0.03117  -0.20311   0.35179  -0.04100
  38        3PY        -0.02712  -0.01812   0.18166  -0.01665  -0.65114
  39        3PZ        -0.06030  -0.01126  -0.01621  -0.28312  -0.04971
  40        4XX        -0.00315   0.00619   0.00209  -0.01128   0.01206
  41        4YY         0.00183   0.00085   0.01176   0.00311  -0.01005
  42        4ZZ         0.00777  -0.00751  -0.00235  -0.01026  -0.00948
  43        4XY         0.00905   0.00278  -0.00260  -0.01214   0.00990
  44        4XZ         0.00293   0.00306   0.00775  -0.00152   0.00151
  45        4YZ        -0.00137  -0.00085  -0.00328  -0.00101   0.00382
  46 4   O  1S         -0.05096   0.00077   0.06857   0.05714  -0.01684
  47        2S          0.09779   0.00454  -0.10511  -0.05978   0.07482
  48        2PX         0.28909   0.25238   0.20516   0.14272   0.04145
  49        2PY         0.16146   0.20593  -0.04325   0.02509  -0.15203
  50        2PZ        -0.20092   0.47148  -0.05865  -0.13573  -0.00249
  51        3S          0.25156  -0.03155  -0.76798  -0.74899  -0.01207
  52        3PX         0.19233   0.19557   0.35980   0.24127   0.09594
  53        3PY         0.12319   0.16870  -0.10460   0.04887  -0.18021
  54        3PZ        -0.13986   0.36045  -0.10079  -0.20402   0.00547
  55        4XX        -0.02040  -0.01245   0.01387   0.02018   0.00495
  56        4YY        -0.00644  -0.00088   0.02683   0.03586   0.00656
  57        4ZZ        -0.00580   0.01853   0.02616   0.02597   0.01185
  58        4XY        -0.00221  -0.00908   0.00033  -0.00358   0.00360
  59        4XZ         0.01304  -0.01114   0.00853   0.00875   0.00060
  60        4YZ         0.00422   0.00159   0.00354  -0.00243  -0.00140
  61 5   H  1S          0.12651  -0.15639   0.00415   0.01960   0.02035
  62        2S          0.15238  -0.20640   0.52288  -0.34323   0.15659
  63 6   H  1S         -0.07688   0.01143  -0.00203  -0.06257   0.07224
  64        2S         -0.11101   0.00502   0.61075  -0.52994   1.22633
  65 7   H  1S          0.06759  -0.02951  -0.01300  -0.02239  -0.00070
  66        2S          0.08923  -0.08621   0.24213  -0.76169   0.03042
  67 8   H  1S         -0.07092  -0.05026   0.04313   0.04575  -0.07065
  68        2S         -0.08503  -0.11171   0.53531  -0.39179  -0.94648
  69 9   H  1S          0.05180   0.02581   0.00410  -0.06085   0.06174
  70        2S          0.07970   0.06680   0.25675  -0.77262   0.43045
  71 10  H  1S          0.01825   0.00401   0.03969   0.04357  -0.06631
  72        2S          0.04610  -0.00738   0.51545  -0.37535  -1.04795
  73 11  H  1S          0.05135  -0.03592  -0.03099  -0.03404  -0.03412
  74        2S          0.07931  -0.08559   0.11239  -0.84005  -0.35817
  75 12  H  1S         -0.12631   0.00126   0.10095   0.07111   0.00332
  76        2S         -0.10148   0.00185   1.04806   0.74654   0.21401
                          21        22        23        24        25
                           V         V         V         V         V
     Eigenvalues --     0.14636   0.15954   0.17373   0.19466   0.19537
   1 1   C  1S          0.05152   0.00611  -0.10242   0.01801  -0.01028
   2        2S         -0.05272  -0.00313   0.12383  -0.02032   0.01408
   3        2PX         0.02321  -0.12171   0.00436   0.06648  -0.09029
   4        2PY        -0.00384  -0.00954  -0.02437  -0.00601   0.07870
   5        2PZ        -0.23238  -0.06137   0.17994  -0.00979   0.01230
   6        3S         -0.92720  -0.14858   1.77625  -0.30708   0.09788
   7        3PX         0.18667  -0.57312   0.09118   0.34128  -0.02951
   8        3PY         0.08577  -0.12023  -0.23536  -0.01986   0.46017
   9        3PZ        -0.57002  -0.07587   0.81469  -0.06650   0.01867
  10        4XX        -0.00658   0.00153  -0.01314   0.00218   0.00244
  11        4YY         0.00447  -0.00718  -0.00981   0.00036   0.00094
  12        4ZZ         0.01672   0.00414   0.00118  -0.00080  -0.00029
  13        4XY        -0.00256  -0.00524  -0.00264  -0.00396  -0.01566
  14        4XZ         0.00485  -0.00696   0.00376   0.02817   0.00268
  15        4YZ         0.00895   0.00474   0.00940   0.00062   0.00510
  16 2   C  1S         -0.05968   0.10073   0.03948  -0.00866   0.01105
  17        2S          0.05174  -0.10782  -0.04312   0.01620  -0.03922
  18        2PX        -0.03421   0.04726   0.03076   0.13904  -0.17450
  19        2PY         0.00944   0.13354   0.00639   0.11431   0.14844
  20        2PZ        -0.20510  -0.06807  -0.20236  -0.20851   0.03162
  21        3S          1.11251  -1.77416  -0.60341   0.07766   0.09565
  22        3PX         0.01851  -0.06224   0.05409   0.41474  -0.41451
  23        3PY         0.04233   0.26168   0.01032   0.46775   0.46559
  24        3PZ        -0.46333  -0.16974  -0.96907  -0.68007   0.07922
  25        4XX         0.00637   0.00320   0.01318  -0.00048  -0.00082
  26        4YY        -0.00618   0.00845   0.00491   0.01151   0.01069
  27        4ZZ        -0.01458   0.01032  -0.00991  -0.01075  -0.00728
  28        4XY        -0.00073   0.00390  -0.00112  -0.00334   0.00540
  29        4XZ        -0.00816   0.00181   0.00919  -0.00273  -0.00110
  30        4YZ        -0.00456  -0.00009   0.00606  -0.00881  -0.00131
  31 3   C  1S          0.02010  -0.10440   0.06449  -0.00815  -0.01132
  32        2S         -0.02790   0.11341  -0.06834   0.00252   0.02439
  33        2PX        -0.08678   0.06215  -0.02254   0.16430  -0.20657
  34        2PY        -0.00831   0.02528   0.00763  -0.06847  -0.30851
  35        2PZ        -0.17916  -0.11996  -0.12518   0.24907   0.04476
  36        3S         -0.33031   1.78853  -1.05329   0.16326   0.07950
  37        3PX        -0.22995  -0.00212   0.03535   0.49259  -0.70384
  38        3PY        -0.08849   0.15993  -0.03522  -0.26212  -1.04731
  39        3PZ        -0.35140  -0.35171  -0.68019   0.87989   0.12503
  40        4XX         0.00546  -0.00124   0.01246  -0.00365  -0.00305
  41        4YY         0.00005  -0.00800   0.00403  -0.01460  -0.00018
  42        4ZZ        -0.00144  -0.01414  -0.00227   0.01399   0.00125
  43        4XY         0.00247   0.00412   0.00333  -0.00065   0.00534
  44        4XZ         0.00680   0.00321  -0.00989  -0.00363   0.00603
  45        4YZ        -0.00088  -0.00227   0.00568   0.00565   0.00733
  46 4   O  1S         -0.01154  -0.02217   0.00398  -0.01162   0.02169
  47        2S          0.01055   0.02283  -0.01808   0.02085  -0.02647
  48        2PX        -0.09100  -0.01932  -0.01940   0.02991   0.05740
  49        2PY         0.04312   0.09973   0.06052   0.00132   0.03187
  50        2PZ         0.02197   0.03294  -0.05186   0.02661  -0.05207
  51        3S          0.17966   0.32692   0.02395   0.12191  -0.35755
  52        3PX        -0.15239  -0.05802  -0.03388  -0.02161   0.09031
  53        3PY         0.10043   0.10185   0.05379  -0.03244   0.12080
  54        3PZ         0.10813   0.08345  -0.11195   0.03853  -0.11299
  55        4XX        -0.00139  -0.01043   0.00087  -0.00538   0.00404
  56        4YY        -0.00752  -0.00792   0.00289  -0.00132   0.00480
  57        4ZZ        -0.00706  -0.00944  -0.00764  -0.00070   0.00941
  58        4XY        -0.00069   0.00178   0.00113   0.00713   0.01064
  59        4XZ        -0.00348  -0.00379   0.00312   0.00343   0.00580
  60        4YZ         0.00592   0.00010  -0.00578  -0.00051   0.00120
  61 5   H  1S          0.09442   0.02641  -0.00844   0.00172  -0.01114
  62        2S          1.31466   0.28542  -1.43316   0.18119  -0.16529
  63 6   H  1S          0.03426  -0.01805   0.05012   0.02944  -0.04909
  64        2S         -0.14440   0.49782   0.71020   0.50642  -0.87885
  65 7   H  1S         -0.06984   0.03327  -0.06504  -0.07539  -0.02827
  66        2S         -1.21221   0.45689  -0.86131  -0.98235   0.12227
  67 8   H  1S         -0.00693   0.03416   0.01013   0.07752   0.06400
  68        2S         -0.06927   1.15355   0.63604   0.85495   0.66896
  69 9   H  1S          0.02601   0.02214   0.03866  -0.04625   0.06386
  70        2S          0.60914  -0.58594   0.68116  -0.77474   1.37689
  71 10  H  1S          0.00412  -0.01429  -0.00406  -0.07944  -0.04752
  72        2S          0.32181  -0.35385   0.62148  -0.92565  -1.25593
  73 11  H  1S         -0.02083  -0.05976  -0.02422   0.09449   0.00481
  74        2S         -0.50846  -1.19533  -0.30101   1.12040   0.07179
  75 12  H  1S         -0.02797  -0.06685  -0.00716  -0.03356  -0.01236
  76        2S         -0.38118  -0.47503  -0.07349  -0.05442   0.15853
                          26        27        28        29        30
                           V         V         V         V         V
     Eigenvalues --     0.22753   0.24150   0.26534   0.50884   0.53045
   1 1   C  1S          0.02635  -0.13839  -0.02422  -0.00985   0.00444
   2        2S         -0.00378   0.15694   0.03998   0.09481  -0.04989
   3        2PX        -0.10404  -0.09594   0.42280  -0.01794  -0.36868
   4        2PY         0.36909   0.07076   0.14683  -0.14248  -0.06614
   5        2PZ         0.09193  -0.33323  -0.02752  -0.06360   0.04785
   6        3S         -0.87303   2.51598   0.38251  -0.52334   0.12981
   7        3PX        -0.51122  -0.28040   1.89214   0.00668   0.75475
   8        3PY         1.64619   0.18085   0.55488   0.64693   0.08027
   9        3PZ         0.33855  -1.39883  -0.19103   0.29694  -0.09474
  10        4XX         0.01384   0.00360   0.00098  -0.06367  -0.00906
  11        4YY        -0.00376  -0.01348  -0.00099   0.01673   0.01741
  12        4ZZ         0.00353   0.00651   0.00547   0.04516  -0.00003
  13        4XY        -0.00385  -0.00231   0.01395  -0.00107   0.06906
  14        4XZ        -0.00063  -0.00078   0.01032   0.00258   0.07064
  15        4YZ         0.02017   0.01238   0.00767  -0.00467   0.00045
  16 2   C  1S         -0.02130   0.06407  -0.02901   0.00618   0.00041
  17        2S          0.00796  -0.01378   0.00916  -0.12926   0.07876
  18        2PX         0.14945  -0.05533   0.16071  -0.47277   0.35036
  19        2PY        -0.06587  -0.10858   0.10132   0.13883   0.13678
  20        2PZ         0.02377   0.01566   0.16871   0.18879   0.42257
  21        3S          0.51966  -1.27838   0.72206   0.54133   0.23115
  22        3PX         0.99736  -0.84226   0.77781   0.75715  -0.54827
  23        3PY        -0.40169  -0.97454   0.74976  -0.29577  -0.07952
  24        3PZ         0.06941   0.10571   0.78596  -0.34448  -0.58923
  25        4XX        -0.01345   0.01456  -0.00275   0.07565   0.05688
  26        4YY         0.01570   0.01118  -0.00414  -0.01745   0.02109
  27        4ZZ        -0.00475  -0.01010   0.00172  -0.06189  -0.04756
  28        4XY        -0.00400   0.03262  -0.01300  -0.02438   0.02487
  29        4XZ        -0.01762  -0.00704  -0.01737  -0.02698   0.02447
  30        4YZ         0.01166   0.00152  -0.01843   0.02251  -0.00243
  31 3   C  1S         -0.03983   0.04727   0.03823   0.00401  -0.00375
  32        2S          0.01761  -0.00409  -0.00259  -0.13929  -0.04249
  33        2PX        -0.11899   0.05729   0.14158   0.47984   0.28940
  34        2PY         0.08349  -0.02841  -0.08904   0.18732  -0.12337
  35        2PZ         0.10057   0.08693  -0.13962   0.15706  -0.39457
  36        3S          0.95471  -0.99719  -0.91200   0.53058  -0.33253
  37        3PX        -0.97602   0.81030   0.84974  -0.73550  -0.42143
  38        3PY         0.13644  -0.39563  -0.93204  -0.38992   0.09005
  39        3PZ         0.39295   0.39647  -0.66246  -0.30575   0.54838
  40        4XX        -0.01615   0.01788   0.00740   0.05505  -0.07170
  41        4YY         0.01348  -0.00200   0.00713  -0.00904  -0.01001
  42        4ZZ        -0.00178  -0.00643  -0.00682  -0.05658   0.05268
  43        4XY         0.00372  -0.02167  -0.02139   0.04164   0.01342
  44        4XZ         0.01635   0.01092  -0.00788   0.02587   0.01854
  45        4YZ         0.00646  -0.00430   0.02017   0.02518  -0.00179
  46 4   O  1S          0.02731   0.05177   0.01950   0.00809   0.00408
  47        2S         -0.02260  -0.03699  -0.01572   0.01977  -0.04077
  48        2PX        -0.11163  -0.02788  -0.09765   0.02699  -0.02248
  49        2PY         0.21813   0.25873   0.08367  -0.03497  -0.06996
  50        2PZ        -0.11969  -0.03327  -0.03379   0.01933   0.00390
  51        3S         -0.45700  -0.86284  -0.31663  -0.25047  -0.04132
  52        3PX        -0.16761  -0.04247  -0.29665   0.00063  -0.15391
  53        3PY         0.47525   0.67422   0.24191   0.05404   0.04502
  54        3PZ        -0.25575  -0.06693  -0.09463  -0.08400  -0.00975
  55        4XX         0.01805   0.01373   0.01429  -0.00472  -0.00063
  56        4YY         0.00028   0.03149   0.00835   0.01501  -0.02636
  57        4ZZ         0.01570   0.02821   0.00648   0.01914  -0.01188
  58        4XY         0.00139  -0.00865  -0.00912  -0.00244   0.00464
  59        4XZ         0.00051  -0.00180   0.01575  -0.00253   0.01787
  60        4YZ         0.00053   0.00787   0.00203   0.02371   0.00869
  61 5   H  1S         -0.01087   0.03573   0.02201   0.16244   0.01348
  62        2S         -0.34653   0.54395  -0.00149  -0.17742   0.01974
  63 6   H  1S          0.04124  -0.03084   0.05475   0.32921   0.02539
  64        2S          0.80473   0.16124   0.04904  -0.09740  -0.12110
  65 7   H  1S         -0.01893  -0.05691   0.03378  -0.23624  -0.26244
  66        2S         -0.10383   0.33194   0.70836  -0.04822  -0.00735
  67 8   H  1S          0.02744   0.00359   0.05461  -0.11778  -0.00324
  68        2S         -0.50994  -0.38581   0.17108  -0.04088   0.03220
  69 9   H  1S          0.02123  -0.03547  -0.04393   0.31381  -0.07006
  70        2S          0.07156  -0.15113   0.18341  -0.09531   0.09886
  71 10  H  1S          0.06135   0.02266  -0.02834  -0.10652   0.05515
  72        2S          0.00479  -0.15935  -0.31453  -0.05289   0.01079
  73 11  H  1S         -0.00031  -0.03278  -0.06070  -0.21115   0.25932
  74        2S          0.19693   0.60112  -0.59549  -0.06443  -0.01726
  75 12  H  1S         -0.06598  -0.01685  -0.00988   0.01867   0.02108
  76        2S         -0.64428  -0.22650  -0.19349   0.05966   0.04526
                          31        32        33        34        35
                           V         V         V         V         V
     Eigenvalues --     0.56675   0.58154   0.58520   0.65000   0.70555
   1 1   C  1S          0.04357   0.02484  -0.00518  -0.05408   0.00687
   2        2S         -0.37486  -0.18805  -0.03310   0.20738  -0.12073
   3        2PX         0.16414  -0.14660   0.06691  -0.04721  -0.91611
   4        2PY        -0.62154  -0.35518  -0.15268  -0.68626   0.08081
   5        2PZ         0.13773   0.09788   0.12076   0.00465   0.24068
   6        3S          1.03232   0.26627  -0.45749  -0.62784   0.55671
   7        3PX        -0.43749   0.53616  -0.14771   0.19330   2.60602
   8        3PY         1.35218   0.43761  -0.43644   1.73533  -0.03696
   9        3PZ        -0.19602  -0.01164   0.04856  -0.30552  -0.79264
  10        4XX         0.04031   0.01371  -0.06592  -0.05743  -0.00345
  11        4YY         0.03947   0.00434  -0.03623   0.03540   0.02093
  12        4ZZ        -0.03501  -0.00979   0.05753   0.01101   0.01289
  13        4XY         0.03019  -0.07132   0.01040  -0.01951  -0.03930
  14        4XZ         0.00312  -0.02064   0.00106   0.00353  -0.01667
  15        4YZ         0.00292   0.00463  -0.00006  -0.03506  -0.01142
  16 2   C  1S         -0.01298   0.00538   0.00719   0.03141   0.01871
  17        2S          0.14624  -0.10774  -0.03476  -0.18462  -0.09839
  18        2PX         0.28474  -0.10455  -0.01417  -0.35554  -0.08524
  19        2PY         0.45849  -0.41643  -0.34644  -0.20907  -0.04115
  20        2PZ         0.08267   0.31304   0.04655  -0.42946  -0.29908
  21        3S         -0.05388   0.37800  -0.18728   0.46459   0.72484
  22        3PX        -0.27382   0.29360  -0.06684   0.74096   0.39426
  23        3PY        -0.98158   0.86888   0.79251   0.16287   0.43182
  24        3PZ        -0.10068  -0.61391  -0.27133   1.09669   1.09359
  25        4XX         0.01460  -0.02518  -0.00365   0.01839   0.04082
  26        4YY        -0.01670   0.07038   0.02507  -0.02739  -0.03965
  27        4ZZ         0.01303  -0.05538  -0.02409   0.01881   0.01404
  28        4XY         0.00494   0.00166   0.00030   0.04720   0.04303
  29        4XZ        -0.00122   0.02866  -0.00488   0.00956  -0.00631
  30        4YZ         0.02968  -0.03434  -0.04988   0.01278   0.00980
  31 3   C  1S         -0.00727  -0.01299   0.01097   0.02212  -0.03007
  32        2S          0.03443   0.15871  -0.07233  -0.11631   0.24330
  33        2PX        -0.17116  -0.35047   0.17465   0.33547  -0.26387
  34        2PY         0.07452   0.36709  -0.49718  -0.09309   0.12743
  35        2PZ         0.29342  -0.02039   0.20187  -0.37814   0.20985
  36        3S          0.33702  -0.26024   0.00105   0.20868  -1.41377
  37        3PX         0.07803   0.60072  -0.24541  -0.48685   1.06631
  38        3PY        -0.23009  -0.70517   1.13744  -0.13852  -0.64880
  39        3PZ        -0.44538  -0.02238  -0.52167   0.90422  -0.70214
  40        4XX         0.00428   0.02873  -0.00779   0.02251  -0.06136
  41        4YY         0.02827  -0.03854   0.06145  -0.03690   0.04069
  42        4ZZ        -0.02964   0.02196  -0.05009   0.02459  -0.00115
  43        4XY        -0.01738   0.01464  -0.01669  -0.02772   0.05555
  44        4XZ        -0.02285   0.00874   0.00127  -0.01190   0.03586
  45        4YZ         0.00298   0.02051  -0.06576   0.01107  -0.02421
  46 4   O  1S          0.00011  -0.02129  -0.00337   0.01463   0.00671
  47        2S          0.16130   0.10435  -0.19518   0.01095  -0.08760
  48        2PX        -0.09167   0.11467  -0.06277  -0.05821  -0.08478
  49        2PY        -0.24301  -0.00432   0.09849  -0.07387  -0.16763
  50        2PZ        -0.04036   0.10128   0.21488  -0.04929   0.06730
  51        3S         -0.86240  -0.16038   0.59215  -0.67422  -0.10202
  52        3PX         0.08287  -0.13053   0.02458  -0.05220  -0.20227
  53        3PY         0.22636   0.01797  -0.17140   0.32881   0.22879
  54        3PZ        -0.13411  -0.02993   0.03254  -0.08665  -0.01148
  55        4XX         0.07947   0.01519  -0.03343   0.03565  -0.03160
  56        4YY        -0.06371  -0.02594  -0.07393  -0.05222  -0.03757
  57        4ZZ         0.06659   0.03521  -0.07527   0.02385  -0.02296
  58        4XY        -0.01261   0.07265  -0.01224   0.02428   0.02282
  59        4XZ        -0.01240   0.01018  -0.01102   0.00001  -0.00060
  60        4YZ         0.05035   0.02632   0.03426   0.04179   0.00793
  61 5   H  1S         -0.00350   0.05248   0.28036  -0.20413   0.08091
  62        2S          0.04611   0.01388  -0.13634  -0.01938   0.28411
  63 6   H  1S         -0.05473  -0.08160  -0.00256  -0.01680   0.19040
  64        2S          0.07442   0.09443  -0.07268   0.09404  -0.10200
  65 7   H  1S         -0.03221  -0.20548  -0.12050   0.20772   0.14372
  66        2S         -0.11797  -0.10550  -0.03348   0.40923   0.44451
  67 8   H  1S         -0.12458   0.36982   0.26199   0.02466  -0.06579
  68        2S         -0.15500   0.15278   0.28483  -0.06540   0.07451
  69 9   H  1S         -0.10029   0.00730  -0.03532  -0.08089  -0.09407
  70        2S          0.08249  -0.09893  -0.06505   0.02653  -0.11436
  71 10  H  1S          0.11311  -0.19605   0.41635  -0.00667   0.02638
  72        2S         -0.06269  -0.02806   0.30367  -0.09353  -0.21139
  73 11  H  1S         -0.16573  -0.00664  -0.21619   0.17801  -0.19290
  74        2S         -0.12883  -0.10939  -0.03392   0.30645  -0.23419
  75 12  H  1S          0.11838  -0.25771   0.13182  -0.00332  -0.00541
  76        2S         -0.20429   0.00403  -0.26150  -0.27453   0.18039
                          36        37        38        39        40
                           V         V         V         V         V
     Eigenvalues --     0.71814   0.76614   0.81633   0.86520   0.88634
   1 1   C  1S          0.00216   0.00067  -0.00897  -0.02675  -0.00296
   2        2S          0.22192  -0.01384   0.03141   0.06863   0.18778
   3        2PX        -0.24446   0.02185   0.19113  -0.03916  -0.16343
   4        2PY        -0.10629   0.02951   0.09955   0.06335   0.01789
   5        2PZ        -0.75366   0.00452   0.38260   0.50845   0.16290
   6        3S         -0.97918   0.00955   0.17349  -0.59116  -0.56156
   7        3PX         0.71239  -1.14074  -0.47423  -0.00839   0.83036
   8        3PY        -0.10591  -0.14708  -0.27646  -0.14777  -0.11602
   9        3PZ         2.57163  -0.02485  -0.74032  -0.67672  -0.16262
  10        4XX         0.04834   0.00598  -0.00038   0.05753   0.05037
  11        4YY        -0.00371  -0.01726   0.12407  -0.01776  -0.02005
  12        4ZZ        -0.07153   0.00676  -0.07862  -0.09192  -0.02372
  13        4XY        -0.01225  -0.03909  -0.03588   0.01767   0.01717
  14        4XZ         0.00478  -0.03234   0.02481  -0.01636   0.01462
  15        4YZ        -0.00569  -0.00283  -0.00977   0.02419  -0.01547
  16 2   C  1S          0.00947   0.02644  -0.02065  -0.02293  -0.01727
  17        2S         -0.15173   0.09050   0.06031  -0.06192   0.09881
  18        2PX        -0.11882  -0.48051  -0.00685  -0.05198  -0.42773
  19        2PY        -0.20714   0.32401  -0.05204  -0.30602   0.44295
  20        2PZ         0.30971   0.29376   0.06743   0.15004   0.21567
  21        3S          1.00148  -1.05823  -0.32349   0.15508   0.30877
  22        3PX         0.64040   1.25796  -0.26981  -0.11870   0.65737
  23        3PY         0.86020  -1.03853  -0.21100   0.33785  -0.42044
  24        3PZ        -0.94429  -0.91893  -0.24155  -0.31652  -0.17325
  25        4XX         0.01586  -0.02027   0.01149   0.01461  -0.11210
  26        4YY        -0.00203   0.04495  -0.02927  -0.03776   0.04615
  27        4ZZ        -0.00221  -0.00972   0.00265   0.00221   0.08125
  28        4XY         0.02137  -0.05810  -0.02892   0.00864   0.11687
  29        4XZ         0.07344  -0.02824   0.00468   0.01541   0.08648
  30        4YZ         0.04121   0.05493   0.02162   0.04191  -0.07013
  31 3   C  1S         -0.00305  -0.02759  -0.00443  -0.03627   0.01129
  32        2S         -0.04686  -0.08616   0.11366  -0.06014  -0.02065
  33        2PX         0.07791  -0.42696   0.10516   0.12524   0.00671
  34        2PY        -0.15304  -0.37460  -0.20161  -0.08915  -0.14769
  35        2PZ         0.41645  -0.31505   0.03744   0.18104  -0.13624
  36        3S          0.39750   1.03677  -0.23956   0.35570  -0.45554
  37        3PX        -0.30742   1.07981   0.07922   0.01776   0.15616
  38        3PY         0.48014   1.19950   0.44435  -0.04830   0.06441
  39        3PZ        -1.37911   0.98245  -0.05513  -0.29224  -0.06721
  40        4XX        -0.01462   0.03159   0.03034  -0.00470   0.02501
  41        4YY         0.03003  -0.05602  -0.01689  -0.04267   0.05048
  42        4ZZ        -0.00632   0.00914   0.01354   0.01413  -0.06942
  43        4XY        -0.00678  -0.04440   0.00873  -0.02541   0.06681
  44        4XZ        -0.07314  -0.00923  -0.03675  -0.02434   0.01799
  45        4YZ         0.00978  -0.06241  -0.00785   0.03726   0.03685
  46 4   O  1S         -0.01340   0.00505  -0.01197   0.00952  -0.00533
  47        2S         -0.13190  -0.02340  -0.14495  -0.28708   0.07905
  48        2PX        -0.16520  -0.06401  -0.44649   0.27735  -0.03216
  49        2PY         0.08459  -0.00665  -0.13361   0.20333   0.10781
  50        2PZ        -0.15907  -0.01853   0.27337  -0.11817   0.02580
  51        3S          0.85168   0.02863   0.16946   0.54258  -0.00163
  52        3PX        -0.00228   0.24647   0.18738  -0.13367  -0.11018
  53        3PY        -0.38898  -0.03655   0.45034  -0.30777  -0.21872
  54        3PZ        -0.03181   0.01359  -0.15725   0.16741   0.02066
  55        4XX        -0.04003   0.00858  -0.14333   0.01403   0.01380
  56        4YY        -0.00133  -0.00344  -0.08354  -0.12136   0.02716
  57        4ZZ        -0.07043  -0.01087   0.00688  -0.06741   0.02068
  58        4XY         0.02018  -0.02120   0.07405  -0.04039  -0.01465
  59        4XZ         0.01012  -0.02743   0.04727  -0.03835   0.01393
  60        4YZ        -0.01953   0.00199  -0.03099   0.00133  -0.01252
  61 5   H  1S         -0.28672   0.03114  -0.41937  -0.54591  -0.17369
  62        2S         -0.81944  -0.02264   0.79490   1.04435   0.41005
  63 6   H  1S         -0.04075   0.35747  -0.01787  -0.11264  -0.87057
  64        2S          0.19756   0.97123  -0.12929  -0.06929   1.40932
  65 7   H  1S          0.12213   0.06870  -0.13198  -0.12771   0.20648
  66        2S         -0.55019  -0.32268  -0.15643  -0.28595  -0.48452
  67 8   H  1S         -0.06356   0.13332  -0.24998  -0.40454   0.27407
  68        2S          0.53551  -0.21433   0.15385   0.49960  -0.62973
  69 9   H  1S         -0.18951  -0.36521  -0.08263  -0.27901   0.32899
  70        2S          0.20545  -0.95936  -0.07291   0.15672  -0.42551
  71 10  H  1S         -0.00235  -0.12577  -0.13311  -0.41291  -0.01987
  72        2S          0.39111   0.16033   0.39616   0.20792   0.11716
  73 11  H  1S          0.01604  -0.07453  -0.07266  -0.10613  -0.29514
  74        2S         -0.68753   0.35953  -0.03687  -0.37278   0.31925
  75 12  H  1S         -0.11929   0.14266  -0.74324   0.52202  -0.03951
  76        2S          0.05696  -0.04383   0.49982  -0.61233   0.11184
                          41        42        43        44        45
                           V         V         V         V         V
     Eigenvalues --     0.89517   0.91133   0.91415   0.93059   0.96813
   1 1   C  1S         -0.00425   0.00042   0.00627   0.00547  -0.01580
   2        2S          0.04835   0.06079  -0.71575  -0.55849  -0.19714
   3        2PX         0.00590   0.03102  -0.01598   0.05048   0.05351
   4        2PY        -0.08047  -0.03751   0.00988   0.05626   0.07548
   5        2PZ         0.02198   0.03779  -0.43540  -0.16793  -0.00739
   6        3S          0.38079  -0.08839   1.42064   1.48279   0.13580
   7        3PX         0.16021  -0.14875   0.11844  -0.22457  -0.23470
   8        3PY         0.48385   0.10888   0.20211   0.35243  -0.16212
   9        3PZ        -0.52471  -0.18865   1.14385  -0.05743   0.28434
  10        4XX        -0.05236  -0.01372  -0.06229  -0.03439  -0.02251
  11        4YY         0.07784   0.01428  -0.02906  -0.04933   0.00226
  12        4ZZ         0.02525   0.01030   0.00355   0.06560  -0.03728
  13        4XY        -0.02073   0.05143  -0.00318   0.00153  -0.03410
  14        4XZ         0.01343  -0.08698  -0.00412  -0.00179  -0.02429
  15        4YZ         0.01710   0.00310   0.03916  -0.07414  -0.02999
  16 2   C  1S          0.01560   0.00439  -0.04643  -0.01266   0.01796
  17        2S         -0.01711   0.02193   0.16688   0.01213  -1.29780
  18        2PX         0.17761   0.05580   0.08207  -0.21370   0.34901
  19        2PY        -0.14493  -0.36865  -0.15873   0.02764   0.21046
  20        2PZ         0.24455   0.51785  -0.26817   0.23861   0.09026
  21        3S          0.04709  -0.11487   0.00210  -0.26368   2.82185
  22        3PX        -0.15057  -0.08340  -0.13212   0.14991  -0.78874
  23        3PY         0.18990   0.57598   0.21757  -0.32265  -0.25689
  24        3PZ        -0.06888  -0.84052   0.27680  -0.20189  -0.31098
  25        4XX        -0.00238   0.00852   0.02353  -0.07221  -0.12192
  26        4YY        -0.06919  -0.13580   0.00321  -0.04945  -0.03444
  27        4ZZ         0.07155   0.13259  -0.04108   0.10330  -0.02706
  28        4XY         0.01505  -0.00570   0.00743   0.04171  -0.05645
  29        4XZ        -0.03464  -0.00022   0.00775  -0.02955   0.00759
  30        4YZ         0.00542   0.07506   0.01118  -0.00734  -0.05236
  31 3   C  1S          0.02467   0.00845  -0.04105  -0.01639  -0.02279
  32        2S          0.03766  -0.06094   0.20426   0.07835   0.01402
  33        2PX        -0.25654  -0.09476  -0.09850   0.26203   0.20537
  34        2PY        -0.59342   0.27291  -0.26375   0.17626   0.08833
  35        2PZ         0.20306  -0.43931  -0.43937   0.22279  -0.15145
  36        3S         -0.38942   0.17179  -0.26764  -0.20684   0.02269
  37        3PX         0.32612   0.08727   0.18413  -0.27336  -0.39754
  38        3PY         0.77366  -0.49954   0.21113  -0.52199  -0.20492
  39        3PZ        -0.16553   0.89317   0.48846  -0.05884   0.14616
  40        4XX         0.07468   0.00911   0.06741  -0.04479   0.03560
  41        4YY        -0.10372   0.09362   0.02423  -0.07005   0.01726
  42        4ZZ         0.04147  -0.10587  -0.09290   0.11161  -0.05904
  43        4XY         0.10150  -0.02008   0.04487  -0.06377   0.01217
  44        4XZ         0.05676   0.04104   0.02043   0.02725  -0.01673
  45        4YZ         0.09768  -0.05184   0.04954  -0.00197   0.01603
  46 4   O  1S          0.02237   0.00282  -0.00463   0.00842  -0.00752
  47        2S         -0.01341   0.07407  -0.23288  -0.18773  -0.41135
  48        2PX         0.07697  -0.00896  -0.02973   0.00261  -0.02506
  49        2PY        -0.19499   0.02702  -0.00395  -0.12838  -0.10167
  50        2PZ        -0.03515   0.00772   0.07702   0.40711   0.03098
  51        3S         -0.42307  -0.21244   0.37282  -0.03227   0.88381
  52        3PX        -0.17671   0.09455   0.00008   0.03500   0.07997
  53        3PY         0.54024   0.00835  -0.00005   0.38613   0.08226
  54        3PZ        -0.00308  -0.00260  -0.23849  -0.51530  -0.05709
  55        4XX         0.01635   0.01537  -0.04299  -0.03284  -0.10159
  56        4YY        -0.00227   0.02438  -0.11274  -0.06295  -0.13265
  57        4ZZ         0.02522   0.02967  -0.06929  -0.08695  -0.13495
  58        4XY        -0.00587  -0.00142   0.00993   0.00486   0.01288
  59        4XZ        -0.00732   0.00795  -0.00191  -0.00448  -0.02382
  60        4YZ         0.01977   0.00196   0.01379   0.04148   0.00152
  61 5   H  1S          0.13729   0.03869   0.19493   0.49065  -0.18881
  62        2S          0.16197   0.09790  -1.35579  -0.76136  -0.04544
  63 6   H  1S          0.15760   0.07256  -0.17500  -0.38893   0.22991
  64        2S         -0.17114  -0.09943  -0.14258   0.61472  -0.98117
  65 7   H  1S          0.43478   0.56627  -0.40660   0.32398   0.37696
  66        2S         -0.41175  -1.16648   0.51024  -0.52762  -1.11481
  67 8   H  1S         -0.09019  -0.54584  -0.31824  -0.22616   0.51642
  68        2S          0.33561   1.25439   0.21551   0.06259  -1.12848
  69 9   H  1S          0.69710   0.11954   0.14294  -0.45302  -0.09290
  70        2S         -1.01208  -0.14872  -0.57162   0.79534   0.20402
  71 10  H  1S         -0.46773   0.47225  -0.40995  -0.25590  -0.17920
  72        2S          1.20965  -1.06626   0.29343  -0.02856  -0.01050
  73 11  H  1S          0.32035  -0.36797  -0.61819   0.32780  -0.37388
  74        2S         -0.24962   1.02540   0.94175  -0.44765   0.47087
  75 12  H  1S          0.07593  -0.02732   0.06411   0.11811   0.13359
  76        2S         -0.28268   0.05587  -0.21278  -0.27690  -0.28992
                          46        47        48        49        50
                           V         V         V         V         V
     Eigenvalues --     0.98786   1.03831   1.04180   1.17272   1.36340
   1 1   C  1S         -0.02240  -0.00429  -0.03100   0.02867   0.06387
   2        2S         -0.38309  -0.24034  -0.70084   0.55861   0.70586
   3        2PX        -0.01560  -0.10168   0.02597  -0.07612   0.01544
   4        2PY         0.01789  -0.11177   0.12342  -0.02098   0.00318
   5        2PZ        -0.05677   0.04168   0.16494   0.02658   0.05683
   6        3S          0.29175  -0.03968   1.45624  -1.61790  -2.61579
   7        3PX         0.10227   0.60873  -0.21651  -0.90538   0.56785
   8        3PY         0.18104   0.27108  -0.79207   0.16598   0.91201
   9        3PZ         0.52620  -0.02222  -0.89368   0.16799   0.04009
  10        4XX        -0.05248  -0.03032  -0.11178   0.08177   0.15897
  11        4YY        -0.00575  -0.09967  -0.10648  -0.04246  -0.12695
  12        4ZZ        -0.04198   0.04353   0.08912   0.01156   0.06877
  13        4XY         0.01427  -0.00561  -0.02107   0.09433   0.07229
  14        4XZ         0.02388   0.02740   0.00515  -0.08316  -0.07780
  15        4YZ        -0.01104   0.06599   0.01392  -0.03145  -0.27262
  16 2   C  1S         -0.02748  -0.01390  -0.01617   0.03755  -0.09410
  17        2S         -0.48221  -0.66370  -0.15295   0.51133  -1.24437
  18        2PX        -0.08871   0.12821  -0.07843   0.20221  -0.03899
  19        2PY         0.03406   0.12945  -0.10691  -0.12099  -0.10502
  20        2PZ        -0.08130  -0.03787   0.08301  -0.02991  -0.03228
  21        3S          1.20433   2.02209  -0.37067  -1.22361   4.00838
  22        3PX         0.21384  -0.14827  -0.53481  -0.40154   0.74753
  23        3PY        -0.13214  -0.41231   0.11261   0.41534   0.44647
  24        3PZ         0.02411   0.46969  -0.06071  -0.08585   0.13174
  25        4XX        -0.01325  -0.01909  -0.01830   0.03205  -0.15820
  26        4YY        -0.01985  -0.06438  -0.05549   0.04102   0.05741
  27        4ZZ        -0.05244  -0.00474   0.01839   0.01547  -0.06226
  28        4XY        -0.01139   0.03288  -0.00950  -0.02980  -0.01458
  29        4XZ         0.00690  -0.08152  -0.03370   0.08020   0.04398
  30        4YZ         0.01415   0.02748  -0.08690   0.04037   0.19078
  31 3   C  1S          0.00686  -0.01356  -0.01212  -0.03952  -0.00887
  32        2S         -1.47820  -0.08041  -0.37660  -0.57505   0.02927
  33        2PX        -0.37970   0.03530   0.06945  -0.00095  -0.15427
  34        2PY         0.09504  -0.22539   0.02645   0.17049  -0.15864
  35        2PZ         0.01471   0.06664   0.06312  -0.01547  -0.01605
  36        3S          3.40100  -0.06963   0.38502   2.31202   0.44596
  37        3PX         0.75845   0.08862   0.41428  -0.65405   0.00482
  38        3PY        -0.19549   0.24386  -0.09895  -0.65883   0.42598
  39        3PZ        -0.12582  -0.13452   0.14523   0.37799   0.17789
  40        4XX        -0.11623  -0.01632  -0.01973  -0.03238  -0.06252
  41        4YY        -0.04285  -0.02628  -0.05895   0.00461   0.08212
  42        4ZZ        -0.04668   0.01846   0.01110  -0.04166  -0.02202
  43        4XY         0.05052  -0.00455   0.00805  -0.08767  -0.09424
  44        4XZ         0.01923   0.02295   0.07104   0.08819   0.03953
  45        4YZ        -0.00794   0.01129  -0.04876   0.13062   0.14288
  46 4   O  1S         -0.00443   0.00576  -0.00470   0.01981   0.02190
  47        2S         -0.36146   0.63060  -0.01757   0.29449   0.54296
  48        2PX         0.00873   0.02722  -0.38788  -0.60765  -0.01709
  49        2PY         0.06684   0.62450  -0.01548   0.18910  -0.28733
  50        2PZ         0.20958   0.13354  -0.66003   0.20931   0.00837
  51        3S          0.65226  -1.43171  -0.03431  -0.67944  -1.04425
  52        3PX        -0.07170  -0.16613   0.51411   1.29563  -0.02782
  53        3PY        -0.07149  -0.86429   0.07749  -0.58928   0.51093
  54        3PZ        -0.31684  -0.11867   1.03244  -0.36038   0.01188
  55        4XX        -0.07218   0.16566  -0.01709   0.15028   0.19441
  56        4YY        -0.13833   0.16126   0.02162   0.08644   0.38650
  57        4ZZ        -0.09732   0.23756  -0.01631   0.01768  -0.13979
  58        4XY        -0.00324   0.03291   0.05705  -0.07009  -0.05553
  59        4XZ         0.01133   0.05315  -0.01587  -0.09859   0.09678
  60        4YZ        -0.00126   0.01050   0.10743  -0.01721   0.06627
  61 5   H  1S         -0.18531   0.15726   0.21019   0.05438   0.17060
[...]
  51        3S         -0.04100   0.44246   0.00000   0.00000   0.00000
  52        3PX         0.00000   0.00000   0.20746   0.00000   0.00000
  53        3PY         0.00000   0.00000   0.00000   0.18028   0.00000
  54        3PZ         0.00000   0.00000   0.00000   0.00000   0.27933
  55        4XX        -0.00054   0.00064   0.00000   0.00000   0.00000
  56        4YY        -0.00057   0.00103   0.00000   0.00000   0.00000
  57        4ZZ        -0.00037  -0.00541   0.00000   0.00000   0.00000
  58        4XY         0.00000   0.00000   0.00000   0.00000   0.00000
  59        4XZ         0.00000   0.00000   0.00000   0.00000   0.00000
  60        4YZ         0.00000   0.00000   0.00000   0.00000   0.00000
  61 5   H  1S          0.00000  -0.00003  -0.00000  -0.00003  -0.00026
  62        2S         -0.00004   0.00016  -0.00001  -0.00063  -0.00745
  63 6   H  1S          0.00000  -0.00000  -0.00000  -0.00000   0.00000
  64        2S          0.00001  -0.00009   0.00014  -0.00007   0.00004
  65 7   H  1S          0.00000  -0.00000  -0.00000  -0.00000  -0.00000
  66        2S         -0.00000   0.00005  -0.00000  -0.00010   0.00035
  67 8   H  1S         -0.00000   0.00000   0.00000   0.00000  -0.00000
  68        2S         -0.00000   0.00002   0.00007   0.00022  -0.00002
  69 9   H  1S          0.00000  -0.00000  -0.00000  -0.00000  -0.00000
  70        2S         -0.00000   0.00007   0.00058  -0.00038   0.00008
  71 10  H  1S         -0.00000   0.00000   0.00000   0.00000   0.00000
  72        2S         -0.00000   0.00009   0.00006   0.00010  -0.00001
  73 11  H  1S          0.00000  -0.00000  -0.00000  -0.00000  -0.00000
  74        2S         -0.00000   0.00003  -0.00008  -0.00003   0.00040
  75 12  H  1S         -0.00104   0.01838   0.06785   0.01412   0.00769
  76        2S          0.00119  -0.01497   0.02097   0.00498   0.00224
                          51        52        53        54        55
  51        3S          0.76959
  52        3PX         0.00000   0.26721
  53        3PY         0.00000   0.00000   0.22927
  54        3PZ         0.00000   0.00000   0.00000   0.40281
  55        4XX        -0.00677   0.00000   0.00000   0.00000   0.00339
  56        4YY        -0.00040   0.00000   0.00000   0.00000  -0.00002
  57        4ZZ        -0.01243   0.00000   0.00000   0.00000  -0.00006
  58        4XY         0.00000   0.00000   0.00000   0.00000   0.00000
  59        4XZ         0.00000   0.00000   0.00000   0.00000   0.00000
  60        4YZ         0.00000   0.00000   0.00000   0.00000   0.00000
  61 5   H  1S         -0.00026  -0.00002  -0.00026  -0.00684  -0.00000
  62        2S          0.00742  -0.00007  -0.00063  -0.03187  -0.00007
  63 6   H  1S         -0.00008  -0.00023  -0.00012  -0.00000   0.00000
  64        2S         -0.00202   0.00047  -0.00017   0.00021   0.00009
  65 7   H  1S         -0.00008  -0.00004  -0.00026  -0.00001  -0.00000
  66        2S          0.00053   0.00026  -0.00071   0.00233  -0.00000
  67 8   H  1S          0.00001   0.00001   0.00005   0.00000   0.00000
  68        2S          0.00031   0.00076   0.00251  -0.00021   0.00001
  69 9   H  1S         -0.00017  -0.00017  -0.00013  -0.00001   0.00000
  70        2S          0.00043   0.00331  -0.00229   0.00049  -0.00004
  71 10  H  1S          0.00002   0.00001   0.00004   0.00000  -0.00000
  72        2S          0.00152   0.00050   0.00105  -0.00008  -0.00002
  73 11  H  1S         -0.00019  -0.00001  -0.00024   0.00002   0.00000
  74        2S         -0.00006  -0.00045  -0.00034   0.00257   0.00001
  75 12  H  1S          0.00001   0.07954   0.01195   0.01034   0.01033
  76        2S         -0.06607   0.03960   0.00706   0.00493   0.00587
                          56        57        58        59        60
  56        4YY         0.00093
  57        4ZZ         0.00000   0.00189
  58        4XY         0.00000   0.00000   0.00159
  59        4XZ         0.00000   0.00000   0.00000   0.00157
  60        4YZ         0.00000   0.00000   0.00000   0.00000   0.00078
  61 5   H  1S         -0.00001   0.00002  -0.00000   0.00000   0.00006
  62        2S         -0.00038  -0.00031  -0.00000   0.00001   0.00007
  63 6   H  1S          0.00000   0.00000  -0.00000  -0.00000  -0.00000
  64        2S          0.00002   0.00002  -0.00003   0.00000  -0.00000
  65 7   H  1S         -0.00000   0.00000  -0.00000   0.00000   0.00000
  66        2S         -0.00006  -0.00000  -0.00000   0.00002   0.00000
  67 8   H  1S         -0.00000  -0.00000  -0.00000   0.00000   0.00000
  68        2S         -0.00000  -0.00001   0.00001   0.00000   0.00000
  69 9   H  1S         -0.00000  -0.00000  -0.00000  -0.00000  -0.00000
  70        2S         -0.00004   0.00002   0.00000  -0.00000  -0.00000
  71 10  H  1S         -0.00000  -0.00000  -0.00000   0.00000   0.00000
  72        2S         -0.00001  -0.00001  -0.00001   0.00000   0.00000
  73 11  H  1S         -0.00000   0.00000   0.00000   0.00000   0.00000
  74        2S         -0.00005   0.00001  -0.00001  -0.00001   0.00000
  75 12  H  1S         -0.00076   0.00026   0.00150   0.00220   0.00025
  76        2S         -0.00087   0.00085   0.00013   0.00020   0.00004
                          61        62        63        64        65
  61 5   H  1S          0.22231
  62        2S          0.12848   0.20187
  63 6   H  1S         -0.00001  -0.00061   0.21281
  64        2S         -0.00064  -0.00342   0.11197   0.15315
  65 7   H  1S          0.00000   0.00036  -0.00043  -0.00665   0.21067
  66        2S          0.00050   0.00556  -0.00636  -0.01875   0.10472
  67 8   H  1S         -0.00001  -0.00017  -0.00041  -0.00624  -0.00041
  68        2S          0.00006   0.00212  -0.00622  -0.01618  -0.00628
  69 9   H  1S         -0.00001  -0.00058  -0.00000  -0.00000   0.00000
  70        2S         -0.00075  -0.00379  -0.00000  -0.00019   0.00001
  71 10  H  1S         -0.00001  -0.00037   0.00000   0.00001   0.00000
  72        2S         -0.00016   0.00043  -0.00000  -0.00006   0.00001
  73 11  H  1S          0.00000   0.00038   0.00000   0.00001  -0.00000
  74        2S          0.00050   0.00550  -0.00000  -0.00006   0.00039
  75 12  H  1S         -0.00002  -0.00098  -0.00000   0.00064  -0.00000
  76        2S         -0.00034  -0.00292   0.00055   0.00413  -0.00001
                          66        67        68        69        70
  66        2S          0.14191
  67 8   H  1S         -0.00566   0.21161
  68        2S         -0.01359   0.10979   0.15526
  69 9   H  1S         -0.00000   0.00000  -0.00000   0.21124
  70        2S         -0.00008   0.00000  -0.00016   0.10423   0.13648
  71 10  H  1S         -0.00000  -0.00000   0.00013  -0.00041  -0.00567
  72        2S          0.00015   0.00008   0.00152  -0.00646  -0.01546
  73 11  H  1S          0.00044   0.00000   0.00000  -0.00041  -0.00598
  74        2S          0.00506   0.00001   0.00032  -0.00608  -0.01727
  75 12  H  1S         -0.00009   0.00000   0.00001   0.00000  -0.00001
  76        2S         -0.00054  -0.00001  -0.00011   0.00001  -0.00017
                          71        72        73        74        75
  71 10  H  1S          0.21215
  72        2S          0.11051   0.14974
  73 11  H  1S         -0.00042  -0.00648   0.21105
  74        2S         -0.00594  -0.01552   0.10542   0.14193
  75 12  H  1S         -0.00000  -0.00001   0.00000  -0.00001   0.19962
  76        2S         -0.00001  -0.00031   0.00001  -0.00013   0.06824
                          76
  76        2S          0.07108
     Gross orbital populations:
                           1
   1 1   C  1S          1.99224
   2        2S          0.69419
   3        2PX         0.71938
   4        2PY         0.58486
   5        2PZ         0.71270
   6        3S          0.48753
   7        3PX         0.22843
   8        3PY         0.14431
   9        3PZ         0.24413
  10        4XX        -0.00192
  11        4YY         0.00422
  12        4ZZ         0.01059
  13        4XY         0.01500
  14        4XZ         0.00557
  15        4YZ         0.01263
  16 2   C  1S          1.99189
  17        2S          0.67972
  18        2PX         0.70136
  19        2PY         0.71021
  20        2PZ         0.71545
  21        3S          0.63645
  22        3PX         0.30586
  23        3PY         0.33149
  24        3PZ         0.35555
  25        4XX         0.00191
  26        4YY         0.00392
  27        4ZZ         0.00716
  28        4XY         0.00644
  29        4XZ         0.00359
  30        4YZ         0.00430
  31 3   C  1S          1.99188
  32        2S          0.68019
  33        2PX         0.70111
  34        2PY         0.71568
  35        2PZ         0.71588
  36        3S          0.62966
  37        3PX         0.29945
  38        3PY         0.32428
  39        3PZ         0.35305
  40        4XX         0.00005
  41        4YY         0.00465
  42        4ZZ         0.00734
  43        4XY         0.00735
  44        4XZ         0.00382
  45        4YZ         0.00417
  46 4   O  1S          1.99249
  47        2S          0.89965
  48        2PX         0.95454
  49        2PY         0.87312
  50        2PZ         1.08904
  51        3S          0.99479
  52        3PX         0.58170
  53        3PY         0.50094
  54        3PZ         0.71028
  55        4XX         0.01174
  56        4YY         0.00880
  57        4ZZ        -0.01114
  58        4XY         0.00587
  59        4XZ         0.00430
  60        4YZ         0.00521
  61 5   H  1S          0.54047
  62        2S          0.34961
  63 6   H  1S          0.52788
  64        2S          0.34076
  65 7   H  1S          0.52456
  66        2S          0.32094
  67 8   H  1S          0.52555
  68        2S          0.33212
  69 9   H  1S          0.52541
  70        2S          0.31796
  71 10  H  1S          0.52701
  72        2S          0.33491
  73 11  H  1S          0.52519
  74        2S          0.32328
  75 12  H  1S          0.48212
  76        2S          0.13318
          Condensed to atoms (all electrons):
               1          2          3          4          5          6
     1  C    4.660221   0.364865   0.386571   0.253297   0.374014  -0.028683
     2  C    0.364865   5.196822  -0.050114  -0.050352  -0.068109   0.364777
     3  C    0.386571  -0.050114   5.118144  -0.058635  -0.056178   0.005389
     4  O    0.253297  -0.050352  -0.058635   8.278915  -0.041424  -0.001816
     5  H    0.374014  -0.068109  -0.056178  -0.041424   0.681143  -0.004677
     6  H   -0.028683   0.364777   0.005389  -0.001816  -0.004677   0.589885
     7  H   -0.028904   0.364836  -0.008361   0.002281   0.006420  -0.032182
     8  H   -0.020459   0.341829  -0.002682   0.003725   0.001995  -0.029048
     9  H   -0.025449   0.005730   0.368644   0.001744  -0.005133  -0.000194
    10  H   -0.027979  -0.001659   0.360367   0.003251  -0.000102  -0.000054
    11  H   -0.029210  -0.009250   0.367229   0.001572   0.006380  -0.000053
    12  H   -0.024423  -0.004080   0.008180   0.228772  -0.004250   0.005306
               7          8          9         10         11         12
     1  C   -0.028904  -0.020459  -0.025449  -0.027979  -0.029210  -0.024423
     2  C    0.364836   0.341829   0.005730  -0.001659  -0.009250  -0.004080
     3  C   -0.008361  -0.002682   0.368644   0.360367   0.367229   0.008180
     4  O    0.002281   0.003725   0.001744   0.003251   0.001572   0.228772
     5  H    0.006420   0.001995  -0.005133  -0.000102   0.006380  -0.004250
     6  H   -0.032182  -0.029048  -0.000194  -0.000054  -0.000053   0.005306
     7  H    0.562020  -0.025940  -0.000074   0.000155   0.005887  -0.000642
     8  H   -0.025940   0.586449  -0.000154   0.001729   0.000336  -0.000111
     9  H   -0.000074  -0.000154   0.556185  -0.028013  -0.029746  -0.000172
    10  H    0.000155   0.001729  -0.028013   0.582911  -0.028355  -0.000326
    11  H    0.005887   0.000336  -0.029746  -0.028355   0.563808  -0.000129
    12  H   -0.000642  -0.000111  -0.000172  -0.000326  -0.000129   0.407176
 Mulliken charges:
               1
     1  C    0.146138
     2  C   -0.455296
     3  C   -0.438555
     4  O   -0.621329
     5  H    0.109920
     6  H    0.131351
     7  H    0.154504
     8  H    0.142329
     9  H    0.156632
    10  H    0.138076
    11  H    0.151530
    12  H    0.384700
 Sum of Mulliken charges =  -0.00000
 Mulliken charges with hydrogens summed into heavy atoms:
               1
     1  C    0.256058
     2  C   -0.027112
     3  C    0.007683
     4  O   -0.236629
 Electronic spatial extent (au):  <R**2>=            319.1184
 Charge=             -0.0000 electrons
 Dipole moment (field-independent basis, Debye):
    X=             -1.1608    Y=             -0.6446    Z=              0.8161  Tot=              1.5585
 Quadrupole moment (field-independent basis, Debye-Ang):
   XX=            -25.0659   YY=            -26.5406   ZZ=            -26.5076
   XY=             -2.6995   XZ=             -0.2659   YZ=              1.1075
 Traceless Quadrupole moment (field-independent basis, Debye-Ang):
   XX=              0.9721   YY=             -0.5026   ZZ=             -0.4695
   XY=             -2.6995   XZ=             -0.2659   YZ=              1.1075
 Octapole moment (field-independent basis, Debye-Ang**2):
  XXX=             -1.3202  YYY=              7.2627  ZZZ=             -1.1755  XYY=             -5.2755
  XXY=              5.6401  XXZ=              0.5459  XZZ=             -0.1341  YZZ=              1.4796
  YYZ=              2.1068  XYZ=             -0.4349
 Hexadecapole moment (field-independent basis, Debye-Ang**3):
 XXXX=           -200.3540 YYYY=           -147.5456 ZZZZ=            -53.4933 XXXY=             -3.6716
 XXXZ=             -0.2059 YYYX=            -11.9920 YYYZ=             -0.4947 ZZZX=             -0.1861
 ZZZY=              0.8563 XXYY=            -56.2149 XXZZ=            -43.0942 YYZZ=            -36.0918
 XXYZ=              0.2727 YYXZ=             -0.5655 ZZXY=             -0.6344
 N-N= 1.344030766618D+02 E-N=-7.214590534896D+02  KE= 1.925401565867D+02
 Orbital energies and kinetic energies (alpha):
                                 1                 2
   1         O               -19.135239         29.029027
   2         O               -10.232873         15.890596
   3         O               -10.175780         15.881539
   4         O               -10.169616         15.881596
   5         O                -1.008440          2.475364
   6         O                -0.765749          1.503614
   7         O                -0.687044          1.341685
   8         O                -0.581061          1.527100
   9         O                -0.505994          1.377945
  10         O                -0.447767          1.135529
  11         O                -0.428984          1.241489
  12         O                -0.387706          1.080336
  13         O                -0.377833          1.181460
  14         O                -0.361610          1.500715
  15         O                -0.351633          1.266661
  16         O                -0.317455          1.797922
  17         O                -0.260685          2.157499
  18         V                 0.072057          1.065908
  19         V                 0.120424          1.162536
  20         V                 0.144625          1.024277
  21         V                 0.146358          0.963576
  22         V                 0.159538          1.126355
  23         V                 0.173734          1.089835
  24         V                 0.194661          0.977478
  25         V                 0.195366          1.038190
  26         V                 0.227532          1.505941
  27         V                 0.241502          1.923265
  28         V                 0.265343          1.484349
  29         V                 0.508835          1.755661
  30         V                 0.530448          1.675093
  31         V                 0.566755          2.288695
  32         V                 0.581540          2.033243
  33         V                 0.585197          1.834599
  34         V                 0.650002          2.502121
  35         V                 0.705551          2.537127
  36         V                 0.718136          2.341409
  37         V                 0.766138          2.002498
  38         V                 0.816328          2.793113
  39         V                 0.865198          2.711371
  40         V                 0.886335          2.483096
  41         V                 0.895175          2.590045
  42         V                 0.911333          2.544610
  43         V                 0.914145          2.613766
  44         V                 0.930590          2.713271
  45         V                 0.968133          2.559022
  46         V                 0.987861          2.475545
  47         V                 1.038305          2.939614
  48         V                 1.041798          3.021423
  49         V                 1.172723          2.845804
  50         V                 1.363396          2.533827
  51         V                 1.412165          2.581334
  52         V                 1.420864          2.596254
  53         V                 1.505803          2.591226
  54         V                 1.694913          2.728358
  55         V                 1.749578          2.939022
  56         V                 1.767902          3.000843
  57         V                 1.818758          3.108805
  58         V                 1.855742          3.076255
  59         V                 1.954122          3.267878
  60         V                 1.989729          3.349253
  61         V                 2.056471          3.487274
  62         V                 2.122414          3.477842
  63         V                 2.183941          3.496181
  64         V                 2.234732          3.622270
  65         V                 2.250996          3.625564
  66         V                 2.277794          3.698399
  67         V                 2.408895          3.716615
  68         V                 2.511017          3.879295
  69         V                 2.538160          4.067640
  70         V                 2.566674          3.953000
  71         V                 2.710447          4.272363
  72         V                 2.871935          4.548170
  73         V                 3.742885         10.308559
  74         V                 4.173989         10.233347
  75         V                 4.289417         10.292765
  76         V                 4.505777         10.401243
 Total kinetic energy from orbitals= 1.925401565867D+02
 No NMR shielding tensors so no spin-rotation constants.
 Leave Link  601 at Mon Nov  1 10:30:27 2021, MaxMem=  1073741824 cpu:               0.1 elap:               0.1
 (Enter /home/don/gdv/gdv/l9999.exe)

 Test job not archived.
 1\1\GINC-DON-IC-DELL\SP\RB3LYP\6-31G(d)\C3H8O1\DON\01-Nov-2021\0\\#p b
 3lyp/6-31g* test pop=full\\Name\\0,1\C,0,0.0018,0.0419,0.36522\C,0,-1.
 20447,-0.77473,-0.10344\C,0,1.32661,-0.5594,-0.08877\O,0,-0.03727,1.37
 004,-0.16598\H,0,-0.00609,0.08411,1.46828\H,0,-2.14485,-0.31321,0.2257
 4\H,0,-1.21954,-0.83468,-1.19761\H,0,-1.17693,-1.79306,0.30188\H,0,2.1
 6109,0.06553,0.2444\H,0,1.45794,-1.56668,0.32121\H,0,1.35979,-0.61963,
 -1.18251\H,0,-0.87689,1.77064,0.10844\\Version=ES64L-GDVRevJ.05\State=
 1-A\HF=-194.3533105\RMSD=7.532e-09\Dipole=-0.4566965,-0.2536035,0.3210
 796\Quadrupole=0.7226935,-0.3736178,-0.3490757,-2.0070364,-0.1976876,0
 .823403\PG=C01 [X(C3H8O1)]\\@


 SCIENCE IS LONG AND LIFE IS SHORT.

                     DON MOSER IN THE FEBRUARY 1979 SMITHSONIAN
 Job cpu time:       0 days  0 hours  0 minutes 13.2 seconds.
 Elapsed time:       0 days  0 hours  0 minutes 13.2 seconds.
 File lengths (MBytes):  RWF=      6 Int=      0 D2E=      0 Chk=      1 Scr=      1
 Normal termination of Gaussian DV at Mon Nov  1 10:30:27 2021.
