 Entering Gaussian System, Link 0=gdv
 Input=isopropanol_L118_6.com
 Output=isopropanol_L118_6.log
 Initial command:
 /rds/general/project/gaussian-development/live/home/gaussiangdvJ05_pgi_18/gdv/l1.exe "/rds/general/ephemeral/tmpdir/pbs.5262840.pbs/Gau-803585.inp" -scrdir="/rds/general/ephemeral/tmpdir/pbs.5262840.pbs/"
 Entering Link 1 = /rds/general/project/gaussian-development/live/home/gaussiangdvJ05_pgi_18/gdv/l1.exe PID=    803588.
  
 Copyright (c) 1988-2019, Gaussian, Inc.  All Rights Reserved.
  
 This is the private, development version of
 the Gaussian(R) DV system of programs. It is based on
 the Gaussian(R) 16 system (copyright 2016, Gaussian, Inc.),
 the Gaussian(R) 09 system (copyright 2009, Gaussian, Inc.),
 the Gaussian(R) 03 system (copyright 2003, Gaussian, Inc.),
 the Gaussian(R) 98 system (copyright 1998, Gaussian, Inc.),
 the Gaussian(R) 94 system (copyright 1995, Gaussian, Inc.),
 the Gaussian 92(TM) system (copyright 1992, Gaussian, Inc.),
 the Gaussian 90(TM) system (copyright 1990, Gaussian, Inc.),
 the Gaussian 88(TM) system (copyright 1988, Gaussian, Inc.),
 the Gaussian 86(TM) system (copyright 1986, Carnegie Mellon
 University), and the Gaussian 82(TM) system (copyright 1983,
 Carnegie Mellon University). Gaussian is a federally registered
 trademark of Gaussian, Inc.
  
 This software contains proprietary and confidential information,
 including trade secrets, belonging to Gaussian, Inc.
  
 This software is provided under written license and may be
 used, copied, transmitted, or stored only in accord with that
 written license.
  
 The following legend is applicable only to US Government
 contracts under FAR:
  
                    RESTRICTED RIGHTS LEGEND
  
 Use, reproduction and disclosure by the US Government is
 subject to restrictions as set forth in subparagraphs (a)
 and (c) of the Commercial Computer Software - Restricted
 Rights clause in FAR 52.227-19.
  
 Gaussian, Inc.
 340 Quinnipiac St., Bldg. 40, Wallingford CT 06492
  
  
 ---------------------------------------------------------------
 Warning -- This program may not be used in any manner that
 competes with the business of Gaussian, Inc. or will provide
 assistance to any competitor of Gaussian, Inc.  The licensee
 of this program is prohibited from giving any competitor of
 Gaussian, Inc. access to this program.  By using this program,
 the user acknowledges that Gaussian, Inc. is engaged in the
 business of creating and licensing software in the field of
 computational chemistry and represents and warrants to the
 licensee that it is not a competitor of Gaussian, Inc. and that
 it will not use this program in any manner prohibited above.
 ---------------------------------------------------------------
  

 Cite this work as:
 Gaussian Development Version, Revision J.05,
 M. J. Frisch, G. W. Trucks, H. B. Schlegel, G. E. Scuseria, 
 M. A. Robb, J. R. Cheeseman, G. Scalmani, V. Barone, 
 G. A. Petersson, H. Nakatsuji, X. Li, M. Caricato, A. V. Marenich, 
 J. Bloino, B. G. Janesko, R. Gomperts, B. Mennucci, H. P. Hratchian, 
 J. V. Ortiz, A. F. Izmaylov, J. L. Sonnenberg, D. Williams-Young, 
 F. Ding, F. Lipparini, F. Egidi, J. Goings, B. Peng, A. Petrone, 
 T. Henderson, D. Ranasinghe, V. G. Zakrzewski, J. Gao, N. Rega, 
 G. Zheng, W. Liang, M. Hada, M. Ehara, K. Toyota, R. Fukuda, 
 J. Hasegawa, M. Ishida, T. Nakajima, Y. Honda, O. Kitao, H. Nakai, 
 T. Vreven, K. Throssell, J. A. Montgomery, Jr., J. E. Peralta, 
 F. Ogliaro, M. J. Bearpark, J. J. Heyd, E. N. Brothers, K. N. Kudin, 
 V. N. Staroverov, T. A. Keith, R. Kobayashi, J. Normand, 
 K. Raghavachari, A. P. Rendell, J. C. Burant, S. S. Iyengar, 
 J. Tomasi, M. Cossi, J. M. Millam, M. Klene, C. Adamo, R. Cammi, 
 J. W. Ochterski, R. L. Martin, K. Morokuma, O. Farkas, 
 J. B. Foresman, and D. J. Fox, Gaussian, Inc., Wallingford CT, 2019.
 
 ******************************************
 Gaussian DV:  EM64L-GDVRevJ.05 25-Dec-2019
                 8-Mar-2022 
 ******************************************
 %Chk=isopropanol_CAS_NBOsF.chk
 -----------------------------------------
 #P B3LYP/6-31G* Pop=(NBO,SaveNBOs) NoSymm
 -----------------------------------------
 1/38=1,172=1/1;
 2/12=2,15=1,17=6,18=5,40=1/2;
 3/5=1,6=6,7=1,11=2,25=1,30=1,74=-5/1,2,3;
 4//1;
 5/5=2,38=5/2;
 6/7=2,8=2,9=2,10=2,28=1,40=1,73=1/1,7;
 99/5=1,9=1/99;
 Leave Link    1 at Tue Mar  8 23:13:26 2022, MaxMem=           0 cpu:               0.0 elap:               0.2
 (Enter /rds/general/project/gaussian-development/live/home/gaussiangdvJ05_pgi_18/gdv/l101.exe)
 ---------------------------------
 Isopropanol Natural Bond Orbitals
 ---------------------------------
 Symbolic Z-matrix:
 Charge =  0 Multiplicity = 1
 C                     0.0018    0.0419    0.36522 
 C                    -1.20447  -0.77473  -0.10344 
 C                     1.32661  -0.5594   -0.08877 
 O                    -0.03727   1.37004  -0.16598 
 H                    -0.00609   0.08411   1.46828 
 H                    -2.14485  -0.31321   0.22574 
 H                    -1.21954  -0.83468  -1.19761 
 H                    -1.17693  -1.79306   0.30188 
 H                     2.16109   0.06553   0.2444 
 H                     1.45794  -1.56668   0.32121 
 H                     1.35979  -0.61963  -1.18251 
 H                    -0.87689   1.77064   0.10844 
 
 ITRead=  0  0  0  0  0  0  0  0  0  0  0  0
 MicOpt= -1 -1 -1 -1 -1 -1 -1 -1 -1 -1 -1 -1
 NAtoms=     12 NQM=       12 NQMF=       0 NMMI=      0 NMMIF=      0
                NMic=       0 NMicF=      0.
                    Isotopes and Nuclear Properties:
 (Nuclear quadrupole moments (NQMom) in fm**2, nuclear magnetic moments (NMagM)
  in nuclear magnetons)

  Atom         1           2           3           4           5           6           7           8           9          10
 IAtWgt=          12          12          12          16           1           1           1           1           1           1
 AtmWgt=  12.0000000  12.0000000  12.0000000  15.9949146   1.0078250   1.0078250   1.0078250   1.0078250   1.0078250   1.0078250
 NucSpn=           0           0           0           0           1           1           1           1           1           1
 AtZEff=  -0.0000000  -0.0000000  -0.0000000  -0.0000000  -0.0000000  -0.0000000  -0.0000000  -0.0000000  -0.0000000  -0.0000000
 NQMom=    0.0000000   0.0000000   0.0000000   0.0000000   0.0000000   0.0000000   0.0000000   0.0000000   0.0000000   0.0000000
 NMagM=    0.0000000   0.0000000   0.0000000   0.0000000   2.7928460   2.7928460   2.7928460   2.7928460   2.7928460   2.7928460
 AtZNuc=   6.0000000   6.0000000   6.0000000   8.0000000   1.0000000   1.0000000   1.0000000   1.0000000   1.0000000   1.0000000

  Atom        11          12
 IAtWgt=           1           1
 AtmWgt=   1.0078250   1.0078250
 NucSpn=           1           1
 AtZEff=  -0.0000000  -0.0000000
 NQMom=    0.0000000   0.0000000
 NMagM=    2.7928460   2.7928460
 AtZNuc=   1.0000000   1.0000000
 Leave Link  101 at Tue Mar  8 23:13:26 2022, MaxMem=   104857600 cpu:               0.1 elap:               0.1
 (Enter /rds/general/project/gaussian-development/live/home/gaussiangdvJ05_pgi_18/gdv/l202.exe)
                          Input orientation:                          
 ---------------------------------------------------------------------
 Center     Atomic      Atomic             Coordinates (Angstroms)
 Number     Number       Type             X           Y           Z
 ---------------------------------------------------------------------
      1          6           0        0.001801    0.041902    0.365218
      2          6           0       -1.204473   -0.774728   -0.103444
      3          6           0        1.326610   -0.559396   -0.088767
      4          8           0       -0.037269    1.370040   -0.165983
      5          1           0       -0.006090    0.084106    1.468275
      6          1           0       -2.144853   -0.313212    0.225743
      7          1           0       -1.219542   -0.834678   -1.197611
      8          1           0       -1.176931   -1.793062    0.301878
      9          1           0        2.161094    0.065528    0.244400
     10          1           0        1.457943   -1.566683    0.321209
     11          1           0        1.359788   -0.619627   -1.182512
     12          1           0       -0.876885    1.770635    0.108436
 ---------------------------------------------------------------------
                    Distance matrix (angstroms):
                    1          2          3          4          5
     1  C    0.000000
     2  C    1.530237   0.000000
     3  C    1.524067   2.540269   0.000000
     4  O    1.430962   2.442602   2.364075   0.000000
     5  H    1.103892   2.154998   2.148154   2.079759   0.000000
     6  H    2.180294   1.098033   3.494364   2.725564   2.505205
     7  H    2.168526   1.095912   2.790736   2.706069   3.069785
     8  H    2.181860   1.096380   2.818200   3.394545   2.501022
     9  H    2.162799   3.486268   1.094483   2.589009   2.488956
    10  H    2.170215   2.809979   1.095425   3.331270   2.486817
    11  H    2.162688   2.786374   1.095905   2.635123   3.063908
    12  H    1.956155   2.575088   3.212993   0.969916   2.334915
                    6          7          8          9         10
     6  H    0.000000
     7  H    1.775968   0.000000
     8  H    1.769922   1.780108   0.000000
     9  H    4.322612   3.783975   3.821004   0.000000
    10  H    3.815815   3.164107   2.644652   1.778886   0.000000
    11  H    3.789404   2.588323   3.164697   1.774150   1.779811
    12  H    2.442114   2.934421   3.581534   3.486430   4.078527
                   11         12
    11  H    0.000000
    12  H    3.518893   0.000000
 Symmetry turned off by external request.
 Stoichiometry    C3H8O
 Framework group  C1[X(C3H8O)]
 Deg. of freedom    30
 Full point group                 C1      NOp   1
 Rotational constants (GHZ):           8.6522186           7.9888074           4.7456959
 Leave Link  202 at Tue Mar  8 23:13:26 2022, MaxMem=   104857600 cpu:               0.0 elap:               0.1
 (Enter /rds/general/project/gaussian-development/live/home/gaussiangdvJ05_pgi_18/gdv/l301.exe)
 Standard basis: 6-31G(d) (6D, 7F)
 Ernie: Thresh=  0.10000D-02 Tol=  0.10000D-05 Strict=F.
    76 basis functions,   144 primitive gaussians,    76 cartesian basis functions
    17 alpha electrons       17 beta electrons
       nuclear repulsion energy       134.4030962371 Hartrees.
 IExCor=  402 DFT=T Ex+Corr=B3LYP ScaHFX=  0.200000
 ScaDFX=  0.800000  0.720000  1.000000  0.810000  0.000000  0.000000
 ScaDFX=  0.000000  0.000000  0.000000  0.000000  0.000000  0.000000
 IRadAn=      5 IRanWt=     -1 IRanGd=            0 ICorTp=0 IEmpDi=  4
 NAtoms=   12 NActive=   12 NUniq=   12 SFac= 1.00D+00 NAtFMM=   60 NAOKFM=F Big=F
 Integral buffers will be    131072 words long.
 Raffenetti 2 integral format.
 Two-electron integral symmetry is turned off.
 Leave Link  301 at Tue Mar  8 23:13:26 2022, MaxMem=   104857600 cpu:               0.1 elap:               0.1
 (Enter /rds/general/project/gaussian-development/live/home/gaussiangdvJ05_pgi_18/gdv/l302.exe)
 NPDir=0 NMtPBC=     1 NCelOv=     1 NCel=       1 NClECP=     1 NCelD=      1
         NCelK=      1 NCelE2=     1 NClLst=     1 CellRange=     0.0.
 One-electron integrals computed using PRISM.
 NBasis=    76 RedAO= T EigKep=  4.35D-03  NBF=    76
 NBsUse=    76 1.00D-06 EigRej= -1.00D+00 NBFU=    76
 Precomputing XC quadrature grid using
 IXCGrd= 4 IRadAn=           5 IRanWt=          -1 IRanGd=           0 AccXCQ= 0.00D+00.
 Generated NRdTot=       0 NPtTot=      257580 NUsed=           0 NTot=          64
 NSgBfM=    76    76    76    76    76 MxSgAt=    12 MxSgA2=    12 SizInc=   0.000
 NMBTot=     2171 MaxBatPerAtom=       83 MaxMicBPerAtom=      192.
 Leave Link  302 at Tue Mar  8 23:13:27 2022, MaxMem=   104857600 cpu:               0.2 elap:               0.3
 (Enter /rds/general/project/gaussian-development/live/home/gaussiangdvJ05_pgi_18/gdv/l303.exe)
 DipDrv:  MaxL=1.
 Leave Link  303 at Tue Mar  8 23:13:27 2022, MaxMem=   104857600 cpu:               0.0 elap:               0.1
 (Enter /rds/general/project/gaussian-development/live/home/gaussiangdvJ05_pgi_18/gdv/l401.exe)
 ExpMin= 1.61D-01 ExpMax= 5.48D+03 ExpMxC= 8.25D+02 IAcc=3 IRadAn=         5 AccDes= 0.00D+00
 Harris functional with IExCor=  402 and IRadAn=       5 diagonalized for initial guess.
 HarFok:  IExCor=  402 AccDes= 0.00D+00 IRadAn=         5 IDoV= 1 UseB2=F ITyADJ=14 ICtDFT=  3500011
 FoFCou: FMM=F IPFlag=           0 FMFlag=      100000 FMFlg1=           0
         NFxFlg=           0 DoJE=T BraDBF=F KetDBF=T FulRan=T
         wScrn=  0.000000 ICntrl=       500 IOpCl=  0 I1Cent=   200000004 NGrid=           0
         NMat0=    1 NMatS0=      1 NMatT0=    0 NMatD0=    1 NMtDS0=    0 NMtDT0=    0
 Symmetry not used in FoFCou.
 Harris En= -194.407933524966    
 JPrj=0 DoOrth=F DoCkMO=F.
 Leave Link  401 at Tue Mar  8 23:13:28 2022, MaxMem=   104857600 cpu:               1.5 elap:               1.5
 (Enter /rds/general/project/gaussian-development/live/home/gaussiangdvJ05_pgi_18/gdv/l502.exe)
 Keep R1 ints in memory in canonical form, NReq=5186456.
 FoFCou: FMM=F IPFlag=           0 FMFlag=           0 FMFlg1=           0
         NFxFlg=           0 DoJE=F BraDBF=F KetDBF=F FulRan=T
         wScrn=  0.000000 ICntrl=       600 IOpCl=  0 I1Cent=           0 NGrid=           0
         NMat0=    1 NMatS0=   2926 NMatT0=    0 NMatD0=    1 NMtDS0=    0 NMtDT0=    0
 Symmetry not used in FoFCou.
 Two-electron integral symmetry not used.
 Closed shell SCF:
 Using DIIS extrapolation, IDIIS=  1040.
 NGot=   104857600 LenX=   100562115 LenY=   100555898
 Requested convergence on RMS density matrix=1.00D-08 within 128 cycles.
 Requested convergence on MAX density matrix=1.00D-06.
 Requested convergence on             energy=1.00D-06.
 No special actions if energy rises.
 Integral accuracy reduced to 1.0D-05 until final iterations.

 Cycle   1  Pass 0  IDiag  1:
 E= -194.174860037234    
 DIIS: error= 5.36D-02 at cycle   1 NSaved=   1.
 NSaved= 1 IEnMin= 1 EnMin= -194.174860037234     IErMin= 1 ErrMin= 5.36D-02
 ErrMax= 5.36D-02  0.00D+00 EMaxC= 1.00D-01 BMatC= 1.81D-01 BMatP= 1.81D-01
 IDIUse=3 WtCom= 4.64D-01 WtEn= 5.36D-01
 Coeff-Com:  0.100D+01
 Coeff-En:   0.100D+01
 Coeff:      0.100D+01
 Gap=     0.256 Goal=   None    Shift=    0.000
 GapD=    0.256 DampG=1.000 DampE=0.500 DampFc=0.5000 IDamp=-1.
 Damping current iteration by 5.00D-01
 RMSDP=1.22D-02 MaxDP=1.37D-01              OVMax= 1.81D-01

 Cycle   2  Pass 0  IDiag  1:
 E= -194.251927799817     Delta-E=       -0.077067762583 Rises=F Damp=T
 DIIS: error= 8.04D-03 at cycle   2 NSaved=   2.
 NSaved= 2 IEnMin= 2 EnMin= -194.251927799817     IErMin= 2 ErrMin= 8.04D-03
 ErrMax= 8.04D-03  0.00D+00 EMaxC= 1.00D-01 BMatC= 8.18D-03 BMatP= 1.81D-01
 IDIUse=3 WtCom= 9.20D-01 WtEn= 8.04D-02
 Coeff-Com:  0.105D+00 0.895D+00
 Coeff-En:   0.158D+00 0.842D+00
 Coeff:      0.109D+00 0.891D+00
 Gap=     0.339 Goal=   None    Shift=    0.000
 RMSDP=1.88D-03 MaxDP=1.86D-02 DE=-7.71D-02 OVMax= 9.83D-02

 Cycle   3  Pass 0  IDiag  1:
 E= -194.351560958515     Delta-E=       -0.099633158698 Rises=F Damp=F
 DIIS: error= 4.43D-03 at cycle   3 NSaved=   3.
 NSaved= 3 IEnMin= 3 EnMin= -194.351560958515     IErMin= 3 ErrMin= 4.43D-03
 ErrMax= 4.43D-03  0.00D+00 EMaxC= 1.00D-01 BMatC= 2.19D-03 BMatP= 8.18D-03
 IDIUse=3 WtCom= 9.56D-01 WtEn= 4.43D-02
 Coeff-Com:  0.230D-01 0.313D+00 0.664D+00
 Coeff-En:   0.000D+00 0.000D+00 0.100D+01
 Coeff:      0.220D-01 0.299D+00 0.679D+00
 Gap=     0.330 Goal=   None    Shift=    0.000
 RMSDP=8.34D-04 MaxDP=1.29D-02 DE=-9.96D-02 OVMax= 1.34D-02

 Cycle   4  Pass 0  IDiag  1:
 E= -194.352581217920     Delta-E=       -0.001020259405 Rises=F Damp=F
 DIIS: error= 2.52D-03 at cycle   4 NSaved=   4.
 NSaved= 4 IEnMin= 4 EnMin= -194.352581217920     IErMin= 4 ErrMin= 2.52D-03
 ErrMax= 2.52D-03  0.00D+00 EMaxC= 1.00D-01 BMatC= 9.29D-04 BMatP= 2.19D-03
 IDIUse=3 WtCom= 9.75D-01 WtEn= 2.52D-02
 Coeff-Com:  0.129D-02 0.424D-01 0.395D+00 0.561D+00
 Coeff-En:   0.000D+00 0.000D+00 0.311D+00 0.689D+00
 Coeff:      0.126D-02 0.414D-01 0.393D+00 0.565D+00
 Gap=     0.333 Goal=   None    Shift=    0.000
 RMSDP=3.50D-04 MaxDP=5.57D-03 DE=-1.02D-03 OVMax= 5.54D-03

 Cycle   5  Pass 0  IDiag  1:
 E= -194.353307204486     Delta-E=       -0.000725986566 Rises=F Damp=F
 DIIS: error= 3.34D-04 at cycle   5 NSaved=   5.
 NSaved= 5 IEnMin= 5 EnMin= -194.353307204486     IErMin= 5 ErrMin= 3.34D-04
 ErrMax= 3.34D-04  0.00D+00 EMaxC= 1.00D-01 BMatC= 1.18D-05 BMatP= 9.29D-04
 IDIUse=3 WtCom= 9.97D-01 WtEn= 3.34D-03
 Coeff-Com: -0.169D-04 0.130D-02 0.109D+00 0.198D+00 0.691D+00
 Coeff-En:   0.000D+00 0.000D+00 0.000D+00 0.000D+00 0.100D+01
 Coeff:     -0.168D-04 0.129D-02 0.109D+00 0.198D+00 0.692D+00
 Gap=     0.333 Goal=   None    Shift=    0.000
 RMSDP=5.22D-05 MaxDP=6.85D-04 DE=-7.26D-04 OVMax= 7.73D-04

 Cycle   6  Pass 0  IDiag  1:
 E= -194.353316562506     Delta-E=       -0.000009358020 Rises=F Damp=F
 DIIS: error= 1.12D-04 at cycle   6 NSaved=   6.
 NSaved= 6 IEnMin= 6 EnMin= -194.353316562506     IErMin= 6 ErrMin= 1.12D-04
 ErrMax= 1.12D-04  0.00D+00 EMaxC= 1.00D-01 BMatC= 1.13D-06 BMatP= 1.18D-05
 IDIUse=3 WtCom= 9.99D-01 WtEn= 1.12D-03
 Coeff-Com:  0.758D-04-0.101D-02 0.388D-01 0.757D-01 0.340D+00 0.547D+00
 Coeff-En:   0.000D+00 0.000D+00 0.000D+00 0.000D+00 0.000D+00 0.100D+01
 Coeff:      0.757D-04-0.101D-02 0.387D-01 0.756D-01 0.339D+00 0.547D+00
 Gap=     0.333 Goal=   None    Shift=    0.000
 RMSDP=1.30D-05 MaxDP=2.82D-04 DE=-9.36D-06 OVMax= 2.27D-04

 Cycle   7  Pass 0  IDiag  1:
 E= -194.353317574292     Delta-E=       -0.000001011786 Rises=F Damp=F
 DIIS: error= 1.46D-05 at cycle   7 NSaved=   7.
 NSaved= 7 IEnMin= 7 EnMin= -194.353317574292     IErMin= 7 ErrMin= 1.46D-05
 ErrMax= 1.46D-05  0.00D+00 EMaxC= 1.00D-01 BMatC= 2.49D-08 BMatP= 1.13D-06
 IDIUse=1 WtCom= 1.00D+00 WtEn= 0.00D+00
 Coeff-Com:  0.562D-04-0.498D-03 0.749D-02 0.155D-01 0.805D-01 0.196D+00
 Coeff-Com:  0.701D+00
 Coeff:      0.562D-04-0.498D-03 0.749D-02 0.155D-01 0.805D-01 0.196D+00
 Coeff:      0.701D+00
 Gap=     0.333 Goal=   None    Shift=    0.000
 RMSDP=2.57D-06 MaxDP=3.34D-05 DE=-1.01D-06 OVMax= 3.61D-05

 Initial convergence to 1.0D-05 achieved.  Increase integral accuracy.
 Cycle   8  Pass 1  IDiag  1:
 E= -194.353310456762     Delta-E=        0.000007117530 Rises=F Damp=F
 DIIS: error= 1.97D-06 at cycle   1 NSaved=   1.
 NSaved= 1 IEnMin= 1 EnMin= -194.353310456762     IErMin= 1 ErrMin= 1.97D-06
 ErrMax= 1.97D-06  0.00D+00 EMaxC= 1.00D-01 BMatC= 8.67D-10 BMatP= 8.67D-10
 IDIUse=1 WtCom= 1.00D+00 WtEn= 0.00D+00
 Coeff-Com:  0.100D+01
 Coeff:      0.100D+01
 Gap=     0.333 Goal=   None    Shift=    0.000
 RMSDP=2.57D-06 MaxDP=3.34D-05 DE= 7.12D-06 OVMax= 1.04D-05

 Cycle   9  Pass 1  IDiag  1:
 E= -194.353310457586     Delta-E=       -0.000000000824 Rises=F Damp=F
 DIIS: error= 1.51D-06 at cycle   2 NSaved=   2.
 NSaved= 2 IEnMin= 2 EnMin= -194.353310457586     IErMin= 2 ErrMin= 1.51D-06
 ErrMax= 1.51D-06  0.00D+00 EMaxC= 1.00D-01 BMatC= 2.51D-10 BMatP= 8.67D-10
 IDIUse=1 WtCom= 1.00D+00 WtEn= 0.00D+00
 Coeff-Com:  0.315D+00 0.685D+00
 Coeff:      0.315D+00 0.685D+00
 Gap=     0.333 Goal=   None    Shift=    0.000
 RMSDP=3.10D-07 MaxDP=3.81D-06 DE=-8.24D-10 OVMax= 4.70D-06

 Cycle  10  Pass 1  IDiag  1:
 E= -194.353310457810     Delta-E=       -0.000000000224 Rises=F Damp=F
 DIIS: error= 5.40D-07 at cycle   3 NSaved=   3.
 NSaved= 3 IEnMin= 3 EnMin= -194.353310457810     IErMin= 3 ErrMin= 5.40D-07
 ErrMax= 5.40D-07  0.00D+00 EMaxC= 1.00D-01 BMatC= 4.39D-11 BMatP= 2.51D-10
 IDIUse=1 WtCom= 1.00D+00 WtEn= 0.00D+00
 Coeff-Com:  0.455D-01 0.298D+00 0.657D+00
 Coeff:      0.455D-01 0.298D+00 0.657D+00
 Gap=     0.333 Goal=   None    Shift=    0.000
 RMSDP=8.93D-08 MaxDP=1.43D-06 DE=-2.24D-10 OVMax= 1.36D-06

 Cycle  11  Pass 1  IDiag  1:
 E= -194.353310457844     Delta-E=       -0.000000000034 Rises=F Damp=F
 DIIS: error= 1.84D-07 at cycle   4 NSaved=   4.
 NSaved= 4 IEnMin= 4 EnMin= -194.353310457844     IErMin= 4 ErrMin= 1.84D-07
 ErrMax= 1.84D-07  0.00D+00 EMaxC= 1.00D-01 BMatC= 4.72D-12 BMatP= 4.39D-11
 IDIUse=1 WtCom= 1.00D+00 WtEn= 0.00D+00
 Coeff-Com: -0.974D-02 0.775D-01 0.311D+00 0.621D+00
 Coeff:     -0.974D-02 0.775D-01 0.311D+00 0.621D+00
 Gap=     0.333 Goal=   None    Shift=    0.000
 RMSDP=2.64D-08 MaxDP=4.65D-07 DE=-3.42D-11 OVMax= 3.98D-07

 Cycle  12  Pass 1  IDiag  1:
 E= -194.353310457848     Delta-E=       -0.000000000004 Rises=F Damp=F
 DIIS: error= 4.46D-08 at cycle   5 NSaved=   5.
 NSaved= 5 IEnMin= 5 EnMin= -194.353310457848     IErMin= 5 ErrMin= 4.46D-08
 ErrMax= 4.46D-08  0.00D+00 EMaxC= 1.00D-01 BMatC= 3.44D-13 BMatP= 4.72D-12
 IDIUse=1 WtCom= 1.00D+00 WtEn= 0.00D+00
 Coeff-Com: -0.611D-02 0.306D-01 0.139D+00 0.330D+00 0.506D+00
 Coeff:     -0.611D-02 0.306D-01 0.139D+00 0.330D+00 0.506D+00
 Gap=     0.333 Goal=   None    Shift=    0.000
 RMSDP=7.53D-09 MaxDP=1.10D-07 DE=-3.98D-12 OVMax= 1.27D-07

 SCF Done:  E(RB3LYP) =  -194.353310458     A.U. after   12 cycles
            NFock= 12  Conv=0.75D-08     -V/T= 2.0094
 KE= 1.925401582650D+02 PE=-7.214590872824D+02 EE= 2.001625223226D+02
 Leave Link  502 at Tue Mar  8 23:13:43 2022, MaxMem=   104857600 cpu:              14.0 elap:              14.2
 (Enter /rds/general/project/gaussian-development/live/home/gaussiangdvJ05_pgi_18/gdv/l601.exe)
 Copying SCF densities to generalized density rwf, IOpCl= 0 IROHF=0.

 **********************************************************************

            Population analysis using the SCF Density.

 **********************************************************************

 Alpha  occ. eigenvalues --  -19.13524 -10.23287 -10.17578 -10.16962  -1.00844
 Alpha  occ. eigenvalues --   -0.76575  -0.68704  -0.58106  -0.50599  -0.44777
 Alpha  occ. eigenvalues --   -0.42898  -0.38771  -0.37783  -0.36161  -0.35163
 Alpha  occ. eigenvalues --   -0.31746  -0.26069
 Alpha virt. eigenvalues --    0.07206   0.12042   0.14462   0.14636   0.15954
 Alpha virt. eigenvalues --    0.17373   0.19466   0.19537   0.22753   0.24150
 Alpha virt. eigenvalues --    0.26534   0.50883   0.53045   0.56675   0.58154
 Alpha virt. eigenvalues --    0.58520   0.65000   0.70555   0.71813   0.76614
 Alpha virt. eigenvalues --    0.81633   0.86520   0.88634   0.89517   0.91133
 Alpha virt. eigenvalues --    0.91414   0.93059   0.96813   0.98786   1.03831
 Alpha virt. eigenvalues --    1.04180   1.17272   1.36339   1.41216   1.42086
 Alpha virt. eigenvalues --    1.50580   1.69491   1.74958   1.76790   1.81876
 Alpha virt. eigenvalues --    1.85574   1.95412   1.98973   2.05647   2.12241
 Alpha virt. eigenvalues --    2.18394   2.23473   2.25099   2.27779   2.40890
 Alpha virt. eigenvalues --    2.51102   2.53816   2.56667   2.71045   2.87194
 Alpha virt. eigenvalues --    3.74289   4.17399   4.28942   4.50578
          Condensed to atoms (all electrons):
               1          2          3          4          5          6
     1  C    4.660219   0.364865   0.386572   0.253298   0.374014  -0.028683
     2  C    0.364865   5.196822  -0.050113  -0.050352  -0.068109   0.364777
     3  C    0.386572  -0.050113   5.118144  -0.058635  -0.056179   0.005388
     4  O    0.253298  -0.050352  -0.058635   8.278912  -0.041423  -0.001816
     5  H    0.374014  -0.068109  -0.056179  -0.041423   0.681142  -0.004677
     6  H   -0.028683   0.364777   0.005388  -0.001816  -0.004677   0.589884
     7  H   -0.028904   0.364836  -0.008360   0.002281   0.006420  -0.032182
     8  H   -0.020459   0.341829  -0.002682   0.003725   0.001995  -0.029048
     9  H   -0.025448   0.005730   0.368644   0.001743  -0.005133  -0.000194
    10  H   -0.027979  -0.001659   0.360367   0.003251  -0.000102  -0.000054
    11  H   -0.029210  -0.009250   0.367229   0.001572   0.006380  -0.000053
    12  H   -0.024423  -0.004080   0.008180   0.228773  -0.004250   0.005306
               7          8          9         10         11         12
     1  C   -0.028904  -0.020459  -0.025448  -0.027979  -0.029210  -0.024423
     2  C    0.364836   0.341829   0.005730  -0.001659  -0.009250  -0.004080
     3  C   -0.008360  -0.002682   0.368644   0.360367   0.367229   0.008180
     4  O    0.002281   0.003725   0.001743   0.003251   0.001572   0.228773
     5  H    0.006420   0.001995  -0.005133  -0.000102   0.006380  -0.004250
     6  H   -0.032182  -0.029048  -0.000194  -0.000054  -0.000053   0.005306
     7  H    0.562018  -0.025940  -0.000074   0.000155   0.005887  -0.000642
     8  H   -0.025940   0.586450  -0.000154   0.001729   0.000336  -0.000111
     9  H   -0.000074  -0.000154   0.556184  -0.028014  -0.029747  -0.000172
    10  H    0.000155   0.001729  -0.028014   0.582912  -0.028355  -0.000326
    11  H    0.005887   0.000336  -0.029747  -0.028355   0.563810  -0.000129
    12  H   -0.000642  -0.000111  -0.000172  -0.000326  -0.000129   0.407174
 Mulliken charges:
               1
     1  C    0.146138
     2  C   -0.455297
     3  C   -0.438555
     4  O   -0.621329
     5  H    0.109921
     6  H    0.131352
     7  H    0.154505
     8  H    0.142328
     9  H    0.156632
    10  H    0.138075
    11  H    0.151529
    12  H    0.384701
 Sum of Mulliken charges =  -0.00000
 Mulliken charges with hydrogens summed into heavy atoms:
               1
     1  C    0.256059
     2  C   -0.027112
     3  C    0.007681
     4  O   -0.236628
 Electronic spatial extent (au):  <R**2>=            319.1185
 Charge=             -0.0000 electrons
 Dipole moment (field-independent basis, Debye):
    X=             -1.1608    Y=             -0.6446    Z=              0.8161  Tot=              1.5585
 Quadrupole moment (field-independent basis, Debye-Ang):
   XX=            -25.0660   YY=            -26.5406   ZZ=            -26.5076
   XY=             -2.6995   XZ=             -0.2659   YZ=              1.1075
 Traceless Quadrupole moment (field-independent basis, Debye-Ang):
   XX=              0.9721   YY=             -0.5026   ZZ=             -0.4695
   XY=             -2.6995   XZ=             -0.2659   YZ=              1.1075
 Octapole moment (field-independent basis, Debye-Ang**2):
  XXX=             -1.3200  YYY=              7.2629  ZZZ=             -1.1755  XYY=             -5.2755
  XXY=              5.6400  XXZ=              0.5460  XZZ=             -0.1341  YZZ=              1.4796
  YYZ=              2.1068  XYZ=             -0.4349
 Hexadecapole moment (field-independent basis, Debye-Ang**3):
 XXXX=           -200.3544 YYYY=           -147.5451 ZZZZ=            -53.4932 XXXY=             -3.6714
 XXXZ=             -0.2060 YYYX=            -11.9918 YYYZ=             -0.4946 ZZZX=             -0.1862
 ZZZY=              0.8564 XXYY=            -56.2152 XXZZ=            -43.0943 YYZZ=            -36.0917
 XXYZ=              0.2727 YYXZ=             -0.5655 ZZXY=             -0.6343
 N-N= 1.344030962371D+02 E-N=-7.214590869136D+02  KE= 1.925401582650D+02
 No NMR shielding tensors so no spin-rotation constants.
 Leave Link  601 at Tue Mar  8 23:13:43 2022, MaxMem=   104857600 cpu:               0.1 elap:               0.1
 (Enter /rds/general/project/gaussian-development/live/home/gaussiangdvJ05_pgi_18/gdv/l607.exe)
 ******************************Gaussian NBO Version 3.1******************************
             N A T U R A L   A T O M I C   O R B I T A L   A N D
          N A T U R A L   B O N D   O R B I T A L   A N A L Y S I S
 ******************************Gaussian NBO Version 3.1******************************
       /RESON  / : Allow strongly delocalized NBO set

 Analyzing the SCF density

 Job title: Isopropanol Natural Bond Orbitals                               

 Storage needed:     17848 in NPA,     23491 in NBO ( 104856760 available)


 NATURAL POPULATIONS:  Natural atomic orbital occupancies 
                                                          
   NAO  Atom  No  lang   Type(AO)    Occupancy      Energy
 ----------------------------------------------------------
     1    C    1  S      Cor( 1S)     1.99919     -10.11012
     2    C    1  S      Val( 2S)     0.95727      -0.21885
     3    C    1  S      Ryd( 3S)     0.00224       1.30298
     4    C    1  S      Ryd( 4S)     0.00005       4.33038
     5    C    1  px     Val( 2p)     1.03201      -0.07042
     6    C    1  px     Ryd( 3p)     0.00239       0.65348
     7    C    1  py     Val( 2p)     0.76423      -0.05176
     8    C    1  py     Ryd( 3p)     0.00382       0.65845
     9    C    1  pz     Val( 2p)     1.13015      -0.07096
    10    C    1  pz     Ryd( 3p)     0.00272       0.80128
    11    C    1  dxy    Ryd( 3d)     0.00138       2.21359
    12    C    1  dxz    Ryd( 3d)     0.00052       2.02995
    13    C    1  dyz    Ryd( 3d)     0.00145       2.06311
    14    C    1  dx2y2  Ryd( 3d)     0.00166       2.17787
    15    C    1  dz2    Ryd( 3d)     0.00194       2.23728

    16    C    2  S      Cor( 1S)     1.99941     -10.04510
    17    C    2  S      Val( 2S)     1.11323      -0.26096
    18    C    2  S      Ryd( 3S)     0.00042       1.25381
    19    C    2  S      Ryd( 4S)     0.00001       4.22102
    20    C    2  px     Val( 2p)     1.14964      -0.07832
    21    C    2  px     Ryd( 3p)     0.00161       0.62321
    22    C    2  py     Val( 2p)     1.20016      -0.08112
    23    C    2  py     Ryd( 3p)     0.00182       0.62981
    24    C    2  pz     Val( 2p)     1.23402      -0.08104
    25    C    2  pz     Ryd( 3p)     0.00098       0.64346
    26    C    2  dxy    Ryd( 3d)     0.00058       2.11831
    27    C    2  dxz    Ryd( 3d)     0.00035       1.94637
    28    C    2  dyz    Ryd( 3d)     0.00045       1.96240
    29    C    2  dx2y2  Ryd( 3d)     0.00083       2.07210
    30    C    2  dz2    Ryd( 3d)     0.00110       2.20130

    31    C    3  S      Cor( 1S)     1.99940     -10.03852
    32    C    3  S      Val( 2S)     1.10825      -0.25236
    33    C    3  S      Ryd( 3S)     0.00058       1.26215
    34    C    3  S      Ryd( 4S)     0.00002       4.24239
    35    C    3  px     Val( 2p)     1.12897      -0.07121
    36    C    3  px     Ryd( 3p)     0.00158       0.60491
    37    C    3  py     Val( 2p)     1.21524      -0.07180
    38    C    3  py     Ryd( 3p)     0.00227       0.67484
    39    C    3  pz     Val( 2p)     1.23227      -0.07393
    40    C    3  pz     Ryd( 3p)     0.00130       0.64781
    41    C    3  dxy    Ryd( 3d)     0.00067       2.12035
    42    C    3  dxz    Ryd( 3d)     0.00034       1.95711
    43    C    3  dyz    Ryd( 3d)     0.00044       1.97289
    44    C    3  dx2y2  Ryd( 3d)     0.00072       2.08708
    45    C    3  dz2    Ryd( 3d)     0.00108       2.20860

    46    O    4  S      Cor( 1S)     1.99982     -18.94375
    47    O    4  S      Val( 2S)     1.68967      -0.86736
    48    O    4  S      Ryd( 3S)     0.00151       1.44892
    49    O    4  S      Ryd( 4S)     0.00001       3.64911
    50    O    4  px     Val( 2p)     1.67316      -0.27030
    51    O    4  px     Ryd( 3p)     0.00145       1.17468
    52    O    4  py     Val( 2p)     1.51352      -0.26547
    53    O    4  py     Ryd( 3p)     0.00200       1.09739
    54    O    4  pz     Val( 2p)     1.86985      -0.27857
    55    O    4  pz     Ryd( 3p)     0.00167       1.05192
    56    O    4  dxy    Ryd( 3d)     0.00136       2.11579
    57    O    4  dxz    Ryd( 3d)     0.00143       1.98802
    58    O    4  dyz    Ryd( 3d)     0.00077       2.16974
    59    O    4  dx2y2  Ryd( 3d)     0.00112       2.33325
    60    O    4  dz2    Ryd( 3d)     0.00141       2.05263

    61    H    5  S      Val( 1S)     0.79627       0.08121
    62    H    5  S      Ryd( 2S)     0.00256       0.63781

    63    H    6  S      Val( 1S)     0.77609       0.07505
    64    H    6  S      Ryd( 2S)     0.00113       0.65126

    65    H    7  S      Val( 1S)     0.76542       0.08921
    66    H    7  S      Ryd( 2S)     0.00185       0.66070

    67    H    8  S      Val( 1S)     0.76602       0.08225
    68    H    8  S      Ryd( 2S)     0.00121       0.65224

    69    H    9  S      Val( 1S)     0.75822       0.10111
    70    H    9  S      Ryd( 2S)     0.00117       0.65750

    71    H   10  S      Val( 1S)     0.76997       0.08565
    72    H   10  S      Ryd( 2S)     0.00074       0.65902

    73    H   11  S      Val( 1S)     0.76686       0.09357
    74    H   11  S      Ryd( 2S)     0.00164       0.66818

    75    H   12  S      Val( 1S)     0.53177       0.14050
    76    H   12  S      Ryd( 2S)     0.00160       0.63166


 Summary of Natural Population Analysis:                  
                                                          
                                       Natural Population 
                Natural  -----------------------------------------------
    Atom  No    Charge         Core      Valence    Rydberg      Total
 -----------------------------------------------------------------------
      C    1    0.09899      1.99919     3.88366    0.01817     5.90101
      C    2   -0.70460      1.99941     4.69705    0.00814     6.70460
      C    3   -0.69312      1.99940     4.68473    0.00900     6.69312
      O    4   -0.75876      1.99982     6.74620    0.01274     8.75876
      H    5    0.20117      0.00000     0.79627    0.00256     0.79883
      H    6    0.22279      0.00000     0.77609    0.00113     0.77721
      H    7    0.23273      0.00000     0.76542    0.00185     0.76727
      H    8    0.23277      0.00000     0.76602    0.00121     0.76723
      H    9    0.24061      0.00000     0.75822    0.00117     0.75939
      H   10    0.22929      0.00000     0.76997    0.00074     0.77071
      H   11    0.23150      0.00000     0.76686    0.00164     0.76850
      H   12    0.46663      0.00000     0.53177    0.00160     0.53337
 =======================================================================
   * Total *   -0.00000      7.99782    25.94224    0.05995    34.00000

                                 Natural Population      
 --------------------------------------------------------
   Core                       7.99782 ( 99.9727% of   8)
   Valence                   25.94224 ( 99.7778% of  26)
   Natural Minimal Basis     33.94005 ( 99.8237% of  34)
   Natural Rydberg Basis      0.05995 (  0.1763% of  34)
 --------------------------------------------------------

    Atom  No          Natural Electron Configuration
 ----------------------------------------------------------------------------
      C    1      [core]2S( 0.96)2p( 2.93)3p( 0.01)3d( 0.01)
      C    2      [core]2S( 1.11)2p( 3.58)
      C    3      [core]2S( 1.11)2p( 3.58)3p( 0.01)
      O    4      [core]2S( 1.69)2p( 5.06)3p( 0.01)3d( 0.01)
      H    5            1S( 0.80)
      H    6            1S( 0.78)
      H    7            1S( 0.77)
      H    8            1S( 0.77)
      H    9            1S( 0.76)
      H   10            1S( 0.77)
      H   11            1S( 0.77)
      H   12            1S( 0.53)


 NATURAL BOND ORBITAL ANALYSIS:

                       Occupancies       Lewis Structure    Low   High
           Occ.    -------------------  -----------------   occ   occ
  Cycle   Thresh.   Lewis   Non-Lewis     CR  BD  3C  LP    (L)   (NL)   Dev
 =============================================================================
   1(1)    1.90    33.80675   0.19325      4  11   0   2     0      0    0.03
 -----------------------------------------------------------------------------

 Structure accepted: No low occupancy Lewis orbitals

 --------------------------------------------------------
   Core                      7.99782 ( 99.973% of   8)
   Valence Lewis            25.80893 ( 99.265% of  26)
  ==================       ============================
   Total Lewis              33.80675 ( 99.432% of  34)
  -----------------------------------------------------
   Valence non-Lewis         0.15547 (  0.457% of  34)
   Rydberg non-Lewis         0.03778 (  0.111% of  34)
  ==================       ============================
   Total non-Lewis           0.19325 (  0.568% of  34)
 --------------------------------------------------------


       (Occupancy)   Bond orbital/ Coefficients/ Hybrids
 ---------------------------------------------------------------------------------
     1. (1.99050) BD ( 1) C   1 - C   2  
                ( 49.37%)   0.7026* C   1 s( 28.21%)p 2.54( 71.74%)d 0.00(  0.05%)
                                            0.0001  0.5312 -0.0020  0.0012 -0.6744
                                           -0.0067 -0.4327 -0.0004 -0.2742  0.0068
                                            0.0157  0.0088  0.0080  0.0080 -0.0074
                ( 50.63%)   0.7116* C   2 s( 28.43%)p 2.52( 71.53%)d 0.00(  0.04%)
                                            0.0003  0.5332 -0.0072  0.0024  0.6655
                                           -0.0024  0.4499  0.0100  0.2642  0.0055
                                            0.0146  0.0084  0.0062  0.0053 -0.0073
     2. (1.98443) BD ( 1) C   1 - C   3  
                ( 50.09%)   0.7077* C   1 s( 27.96%)p 2.57( 71.99%)d 0.00(  0.05%)
                                           -0.0000  0.5287 -0.0072  0.0011  0.7356
                                            0.0050 -0.3311  0.0114 -0.2627  0.0065
                                           -0.0121 -0.0103  0.0059  0.0126 -0.0064
                ( 49.91%)   0.7065* C   3 s( 28.12%)p 2.55( 71.84%)d 0.00(  0.04%)
                                            0.0004  0.5302 -0.0093  0.0024 -0.7381
                                           -0.0022  0.3287  0.0102  0.2559  0.0074
                                           -0.0121 -0.0090  0.0040  0.0108 -0.0076
     3. (1.99328) BD ( 1) C   1 - O   4  
                ( 32.80%)   0.5727* C   1 s( 19.80%)p 4.04( 79.96%)d 0.01(  0.24%)
                                           -0.0000  0.4438 -0.0314 -0.0037 -0.0571
                                            0.0094  0.8335  0.0323 -0.3169 -0.0052
                                           -0.0052  0.0021 -0.0280 -0.0369 -0.0156
                ( 67.20%)   0.8198* O   4 s( 30.59%)p 2.27( 69.33%)d 0.00(  0.08%)
                                            0.0001  0.5531 -0.0046 -0.0016  0.0054
                                            0.0050 -0.7645 -0.0023  0.3298 -0.0002
                                            0.0097 -0.0098 -0.0201 -0.0132 -0.0055
     4. (1.98021) BD ( 1) C   1 - H   5  
                ( 60.80%)   0.7797* C   1 s( 24.12%)p 3.14( 75.79%)d 0.00(  0.08%)
                                           -0.0001  0.4905  0.0245 -0.0002 -0.0113
                                            0.0041  0.0690  0.0079  0.8675 -0.0189
                                           -0.0005 -0.0009  0.0023  0.0018  0.0288
                ( 39.20%)   0.6261* H   5 s(100.00%)
                                            1.0000  0.0065
     5. (1.98889) BD ( 1) C   2 - H   6  
                ( 61.17%)   0.7821* C   2 s( 23.57%)p 3.24( 76.37%)d 0.00(  0.07%)
                                           -0.0000  0.4855  0.0006 -0.0007 -0.7451
                                           -0.0046  0.3736 -0.0137  0.2620 -0.0072
                                           -0.0161 -0.0119  0.0056  0.0115 -0.0092
                ( 38.83%)   0.6232* H   6 s(100.00%)
                                            1.0000  0.0006
     6. (1.99023) BD ( 1) C   2 - H   7  
                ( 61.82%)   0.7863* C   2 s( 23.97%)p 3.17( 75.97%)d 0.00(  0.06%)
                                            0.0000 -0.4896 -0.0030  0.0007  0.0124
                                            0.0135  0.0505  0.0062  0.8699 -0.0021
                                            0.0003 -0.0006 -0.0023  0.0004 -0.0247
                ( 38.18%)   0.6179* H   7 s(100.00%)
                                           -1.0000 -0.0023
     7. (1.98597) BD ( 1) C   2 - H   8  
                ( 61.66%)   0.7852* C   2 s( 24.00%)p 3.16( 75.94%)d 0.00(  0.06%)
                                            0.0001 -0.4899 -0.0013  0.0006 -0.0268
                                            0.0127  0.8090  0.0023 -0.3223  0.0061
                                            0.0016 -0.0003  0.0156  0.0184  0.0069
                ( 38.34%)   0.6192* H   8 s(100.00%)
                                           -1.0000 -0.0011
     8. (1.98862) BD ( 1) C   3 - H   9  
                ( 62.05%)   0.7877* C   3 s( 24.19%)p 3.13( 75.75%)d 0.00(  0.06%)
                                           -0.0000  0.4918  0.0006 -0.0007  0.6651
                                            0.0030  0.4937 -0.0105  0.2667 -0.0089
                                            0.0185  0.0107  0.0077  0.0048 -0.0085
                ( 37.95%)   0.6160* H   9 s(100.00%)
                                            1.0000  0.0009
     9. (1.98602) BD ( 1) C   3 - H  10  
                ( 61.37%)   0.7834* C   3 s( 23.77%)p 3.20( 76.17%)d 0.00(  0.06%)
                                            0.0001 -0.4875 -0.0019  0.0007 -0.1051
                                           -0.0153  0.8028  0.0008 -0.3254  0.0061
                                            0.0035 -0.0016  0.0156  0.0183  0.0069
                ( 38.63%)   0.6215* H  10 s(100.00%)
                                           -1.0000  0.0001
    10. (1.98976) BD ( 1) C   3 - H  11  
                ( 61.74%)   0.7857* C   3 s( 23.91%)p 3.18( 76.03%)d 0.00(  0.06%)
                                            0.0000 -0.4890 -0.0035  0.0007 -0.0262
                                           -0.0162  0.0521  0.0029  0.8698 -0.0032
                                            0.0001  0.0004 -0.0026  0.0004 -0.0247
                ( 38.26%)   0.6186* H  11 s(100.00%)
                                           -1.0000 -0.0022
    11. (1.98948) BD ( 1) O   4 - H  12  
                ( 73.52%)   0.8574* O   4 s( 19.68%)p 4.08( 80.21%)d 0.01(  0.11%)
                                           -0.0001  0.4431 -0.0210  0.0014 -0.7598
                                           -0.0125  0.4136  0.0326  0.2289 -0.0070
                                           -0.0092 -0.0213  0.0031  0.0218 -0.0092
                ( 26.48%)   0.5146* H  12 s(100.00%)
                                            1.0000 -0.0036
    12. (1.99919) CR ( 1) C   1           s(100.00%)p 0.00(  0.00%)
                                            1.0000 -0.0000  0.0000 -0.0000  0.0001
                                            0.0000  0.0001  0.0000  0.0001 -0.0000
                                           -0.0000 -0.0000 -0.0000 -0.0000  0.0000
    13. (1.99941) CR ( 1) C   2           s(100.00%)p 0.00(  0.00%)
                                            1.0000 -0.0001  0.0000 -0.0000 -0.0002
                                           -0.0000 -0.0002 -0.0000 -0.0001 -0.0000
                                           -0.0000 -0.0000 -0.0000 -0.0000  0.0000
    14. (1.99940) CR ( 1) C   3           s(100.00%)p 0.00(  0.00%)
                                            1.0000 -0.0002  0.0000 -0.0000  0.0003
                                            0.0000 -0.0002 -0.0000 -0.0001 -0.0000
                                            0.0000  0.0000 -0.0000 -0.0000  0.0000
    15. (1.99983) CR ( 1) O   4           s(100.00%)p 0.00(  0.00%)
                                            1.0000  0.0000 -0.0000  0.0000 -0.0001
                                           -0.0000  0.0001  0.0000  0.0000 -0.0000
                                           -0.0000 -0.0000  0.0000  0.0000  0.0000
    16. (1.98167) LP ( 1) O   4           s( 49.69%)p 1.01( 50.25%)d 0.00(  0.06%)
                                           -0.0000  0.7048  0.0116  0.0001  0.4594
                                           -0.0053  0.3274  0.0003 -0.4292  0.0036
                                           -0.0163  0.0139  0.0080 -0.0072 -0.0041
    17. (1.95988) LP ( 2) O   4           s(  0.06%)p99.99( 99.85%)d 1.66(  0.09%)
                                           -0.0000  0.0229 -0.0052 -0.0008  0.4575
                                           -0.0057  0.3685 -0.0070  0.8083 -0.0101
                                           -0.0137 -0.0111 -0.0025 -0.0059  0.0238
    18. (0.00491) RY*( 1) C   1           s(  5.39%)p16.21( 87.46%)d 1.32(  7.14%)
                                            0.0000  0.0221  0.2260 -0.0485  0.0124
                                           -0.5352  0.0277 -0.6799 -0.0010  0.3536
                                            0.2093 -0.0901  0.0203 -0.0960 -0.0994
    19. (0.00228) RY*( 2) C   1           s(  3.38%)p16.72( 56.56%)d11.84( 40.05%)
                                           -0.0000 -0.0037  0.1787 -0.0435 -0.0046
                                            0.0416 -0.0038  0.2711  0.0050  0.7002
                                           -0.1304  0.0863 -0.5512  0.2029  0.1764
    20. (0.00211) RY*( 3) C   1           s( 20.37%)p 1.87( 38.07%)d 2.04( 41.57%)
                                           -0.0000 -0.0006  0.4512  0.0094  0.0036
                                           -0.3799  0.0087  0.1456 -0.0416 -0.4619
                                            0.1243 -0.0703 -0.2021  0.1414  0.5783
    21. (0.00115) RY*( 4) C   1           s(  9.76%)p 5.60( 54.67%)d 3.64( 35.57%)
                                           -0.0000  0.0123  0.3117  0.0182 -0.0063
                                            0.4987  0.0143 -0.5412 -0.0260 -0.0646
                                           -0.4769  0.1917  0.0361  0.0239  0.2993
    22. (0.00095) RY*( 5) C   1           s(  5.29%)p 5.34( 28.24%)d12.56( 66.47%)
                                            0.0000 -0.0016  0.2299 -0.0067  0.0107
                                            0.5277 -0.0108 -0.0569 -0.0062  0.0220
                                            0.7086 -0.1353 -0.1806 -0.3308  0.0478
    23. (0.00062) RY*( 6) C   1           s(  0.05%)p92.45(  4.53%)d99.99( 95.42%)
                                            0.0000  0.0072  0.0187 -0.0094 -0.0003
                                            0.1722  0.0451 -0.1069 -0.0080  0.0459
                                            0.3267 -0.0469  0.2519  0.8832 -0.0428
    24. (0.00021) RY*( 7) C   1           s(  1.54%)p 1.04(  1.61%)d62.89( 96.85%)
                                            0.0000  0.0000  0.1199 -0.0322  0.0181
                                           -0.0963  0.0030  0.0800 -0.0008 -0.0083
                                            0.2321  0.9457  0.1177 -0.0466 -0.0657
    25. (0.00013) RY*( 8) C   1           s( 31.62%)p 0.62( 19.60%)d 1.54( 48.77%)
                                            0.0000 -0.0020  0.5024 -0.2527 -0.0049
                                            0.0188  0.0170  0.3440 -0.0142  0.2771
                                           -0.0954 -0.1608  0.6555 -0.1497  0.0247
    26. (0.00007) RY*( 9) C   1           s( 52.29%)p 0.07(  3.42%)d 0.85( 44.29%)
    27. (0.00000) RY*(10) C   1           s( 70.21%)p 0.09(  6.35%)d 0.33( 23.44%)
    28. (0.00227) RY*( 1) C   2           s(  4.93%)p18.08( 89.14%)d 1.20(  5.93%)
                                            0.0000 -0.0066  0.2218  0.0073 -0.0140
                                           -0.6673  0.0069  0.6372  0.0065  0.1995
                                            0.0687  0.0831  0.0834 -0.1718  0.1060
    29. (0.00135) RY*( 2) C   2           s(  0.41%)p99.99( 84.66%)d36.02( 14.92%)
                                           -0.0000 -0.0045  0.0642 -0.0026  0.0009
                                           -0.2006  0.0004 -0.5660  0.0152  0.6970
                                           -0.0260  0.1934  0.1320 -0.1024  0.2885
    30. (0.00045) RY*( 3) C   2           s( 43.06%)p 1.22( 52.54%)d 0.10(  4.40%)
                                           -0.0000 -0.0086  0.6561 -0.0084  0.0172
                                           -0.3819  0.0050 -0.4160  0.0029 -0.4541
                                           -0.0441  0.0072 -0.0357  0.1942 -0.0545
    31. (0.00022) RY*( 4) C   2           s(  0.92%)p 9.33(  8.56%)d98.60( 90.52%)
                                            0.0000  0.0047  0.0765 -0.0575  0.0010
                                            0.1384 -0.0225  0.2251  0.0058  0.1236
                                           -0.2631  0.3058  0.2658  0.8045  0.1570
    32. (0.00012) RY*( 5) C   2           s( 51.95%)p 0.79( 41.13%)d 0.13(  6.92%)
                                           -0.0000  0.0111  0.6800  0.2388 -0.0049
                                            0.5037 -0.0003  0.1943 -0.0052  0.3460
                                            0.0860 -0.1031 -0.0846 -0.1120 -0.1774
    33. (0.00001) RY*( 6) C   2           s(  0.89%)p 0.32(  0.29%)d99.99( 98.82%)
    34. (0.00001) RY*( 7) C   2           s(  0.36%)p20.49(  7.31%)d99.99( 92.34%)
    35. (0.00000) RY*( 8) C   2           s(  0.36%)p10.41(  3.79%)d99.99( 95.84%)
    36. (0.00000) RY*( 9) C   2           s( 95.57%)p 0.02(  2.27%)d 0.02(  2.16%)
    37. (0.00001) RY*(10) C   2           s(  1.56%)p 6.74( 10.52%)d56.36( 87.92%)
    38. (0.00242) RY*( 1) C   3           s(  0.70%)p99.99( 93.35%)d 8.55(  5.95%)
                                            0.0000 -0.0042  0.0817  0.0163  0.0120
                                            0.3537  0.0103  0.8948  0.0015 -0.0863
                                           -0.1708 -0.0066  0.0274 -0.1716  0.0092
    39. (0.00190) RY*( 2) C   3           s(  7.64%)p10.63( 81.15%)d 1.47( 11.21%)
                                           -0.0000 -0.0067  0.2763  0.0021  0.0033
                                            0.5352  0.0066 -0.1980  0.0172  0.6968
                                           -0.0334 -0.2037  0.1031 -0.0775  0.2300
    40. (0.00057) RY*( 3) C   3           s( 48.69%)p 0.86( 41.91%)d 0.19(  9.40%)
                                           -0.0000 -0.0053  0.6977  0.0049 -0.0158
                                            0.3603  0.0047 -0.2151 -0.0013 -0.4927
                                           -0.0249  0.0992 -0.0348  0.2056 -0.2002
    41. (0.00020) RY*( 4) C   3           s( 27.53%)p 1.91( 52.52%)d 0.72( 19.95%)
                                            0.0000  0.0113  0.5088  0.1277  0.0093
                                           -0.5589 -0.0169  0.3010 -0.0028  0.3491
                                            0.1232 -0.0833  0.1264  0.3916 -0.0898
    42. (0.00007) RY*( 5) C   3           s(  8.16%)p 1.07(  8.75%)d10.18( 83.09%)
    43. (0.00003) RY*( 6) C   3           s( 12.92%)p 1.15( 14.84%)d 5.59( 72.23%)
    44. (0.00000) RY*( 7) C   3           s(  1.13%)p 1.49(  1.68%)d86.15( 97.19%)
    45. (0.00000) RY*( 8) C   3           s(  0.42%)p 1.79(  0.75%)d99.99( 98.83%)
    46. (0.00001) RY*( 9) C   3           s(  1.94%)p 1.28(  2.47%)d49.35( 95.59%)
    47. (0.00000) RY*(10) C   3           s( 90.90%)p 0.03(  2.79%)d 0.07(  6.32%)
    48. (0.00182) RY*( 1) O   4           s(  4.92%)p17.80( 87.61%)d 1.52(  7.47%)
                                            0.0000 -0.0008  0.2217 -0.0067  0.0008
                                            0.1167  0.0029  0.3647  0.0081  0.8541
                                            0.0089  0.0119 -0.1605  0.0441  0.2162
    49. (0.00151) RY*( 2) O   4           s( 18.61%)p 3.58( 66.67%)d 0.79( 14.72%)
                                            0.0000  0.0011  0.4314 -0.0001 -0.0052
                                           -0.8122  0.0013 -0.0829  0.0023  0.0116
                                            0.3701 -0.0559 -0.0491 -0.0454  0.0507
    50. (0.00037) RY*( 3) O   4           s( 53.83%)p 0.77( 41.33%)d 0.09(  4.84%)
                                            0.0000 -0.0051  0.7263  0.1035 -0.0017
                                            0.2517 -0.0040  0.4475  0.0081 -0.3868
                                           -0.1794 -0.0119 -0.0327 -0.0526 -0.1104
    51. (0.00002) RY*( 4) O   4           s( 17.37%)p 4.23( 73.42%)d 0.53(  9.21%)
    52. (0.00002) RY*( 5) O   4           s( 12.20%)p 0.06(  0.69%)d 7.14( 87.11%)
    53. (0.00001) RY*( 6) O   4           s(  0.60%)p28.58( 17.12%)d99.99( 82.28%)
    54. (0.00001) RY*( 7) O   4           s(  0.53%)p 1.45(  0.77%)d99.99( 98.70%)
    55. (0.00001) RY*( 8) O   4           s(  4.46%)p 1.45(  6.46%)d19.98( 89.08%)
    56. (0.00000) RY*( 9) O   4           s( 87.43%)p 0.01(  0.44%)d 0.14( 12.13%)
    57. (0.00001) RY*(10) O   4           s(  0.04%)p99.99(  5.84%)d99.99( 94.12%)
    58. (0.00259) RY*( 1) H   5           s(100.00%)
                                           -0.0065  1.0000
    59. (0.00113) RY*( 1) H   6           s(100.00%)
                                           -0.0006  1.0000
    60. (0.00185) RY*( 1) H   7           s(100.00%)
                                           -0.0023  1.0000
    61. (0.00121) RY*( 1) H   8           s(100.00%)
                                           -0.0011  1.0000
    62. (0.00117) RY*( 1) H   9           s(100.00%)
                                           -0.0009  1.0000
    63. (0.00074) RY*( 1) H  10           s(100.00%)
                                            0.0001  1.0000
    64. (0.00164) RY*( 1) H  11           s(100.00%)
                                           -0.0022  1.0000
    65. (0.00161) RY*( 1) H  12           s(100.00%)
                                            0.0036  1.0000
    66. (0.02624) BD*( 1) C   1 - C   2  
                ( 50.63%)   0.7116* C   1 s( 28.21%)p 2.54( 71.74%)d 0.00(  0.05%)
                                            0.0001  0.5312 -0.0020  0.0012 -0.6744
                                           -0.0067 -0.4327 -0.0004 -0.2742  0.0068
                                            0.0157  0.0088  0.0080  0.0080 -0.0074
                ( 49.37%)  -0.7026* C   2 s( 28.43%)p 2.52( 71.53%)d 0.00(  0.04%)
                                            0.0003  0.5332 -0.0072  0.0024  0.6655
                                           -0.0024  0.4499  0.0100  0.2642  0.0055
                                            0.0146  0.0084  0.0062  0.0053 -0.0073
    67. (0.01877) BD*( 1) C   1 - C   3  
                ( 49.91%)   0.7065* C   1 s( 27.96%)p 2.57( 71.99%)d 0.00(  0.05%)
                                            0.0000 -0.5287  0.0072 -0.0011 -0.7356
                                           -0.0050  0.3311 -0.0114  0.2627 -0.0065
                                            0.0121  0.0103 -0.0059 -0.0126  0.0064
                ( 50.09%)  -0.7077* C   3 s( 28.12%)p 2.55( 71.84%)d 0.00(  0.04%)
                                           -0.0004 -0.5302  0.0093 -0.0024  0.7381
                                            0.0022 -0.3287 -0.0102 -0.2559 -0.0074
                                            0.0121  0.0090 -0.0040 -0.0108  0.0076
    68. (0.02915) BD*( 1) C   1 - O   4  
                ( 67.20%)   0.8198* C   1 s( 19.80%)p 4.04( 79.96%)d 0.01(  0.24%)
                                           -0.0000  0.4438 -0.0314 -0.0037 -0.0571
                                            0.0094  0.8335  0.0323 -0.3169 -0.0052
                                           -0.0052  0.0021 -0.0280 -0.0369 -0.0156
                ( 32.80%)  -0.5727* O   4 s( 30.59%)p 2.27( 69.33%)d 0.00(  0.08%)
                                            0.0001  0.5531 -0.0046 -0.0016  0.0054
                                            0.0050 -0.7645 -0.0023  0.3298 -0.0002
                                            0.0097 -0.0098 -0.0201 -0.0132 -0.0055
    69. (0.03280) BD*( 1) C   1 - H   5  
                ( 39.20%)   0.6261* C   1 s( 24.12%)p 3.14( 75.79%)d 0.00(  0.08%)
                                            0.0001 -0.4905 -0.0245  0.0002  0.0113
                                           -0.0041 -0.0690 -0.0079 -0.8675  0.0189
                                            0.0005  0.0009 -0.0023 -0.0018 -0.0288
                ( 60.80%)  -0.7797* H   5 s(100.00%)
                                           -1.0000 -0.0065
    70. (0.00610) BD*( 1) C   2 - H   6  
                ( 38.83%)   0.6232* C   2 s( 23.57%)p 3.24( 76.37%)d 0.00(  0.07%)
                                            0.0000 -0.4855 -0.0006  0.0007  0.7451
                                            0.0046 -0.3736  0.0137 -0.2620  0.0072
                                            0.0161  0.0119 -0.0056 -0.0115  0.0092
                ( 61.17%)  -0.7821* H   6 s(100.00%)
                                           -1.0000 -0.0006
    71. (0.00897) BD*( 1) C   2 - H   7  
                ( 38.18%)   0.6179* C   2 s( 23.97%)p 3.17( 75.97%)d 0.00(  0.06%)
                                           -0.0000  0.4896  0.0030 -0.0007 -0.0124
                                           -0.0135 -0.0505 -0.0062 -0.8699  0.0021
                                           -0.0003  0.0006  0.0023 -0.0004  0.0247
                ( 61.82%)  -0.7863* H   7 s(100.00%)
                                            1.0000  0.0023
    72. (0.00734) BD*( 1) C   2 - H   8  
                ( 38.34%)   0.6192* C   2 s( 24.00%)p 3.16( 75.94%)d 0.00(  0.06%)
                                           -0.0001  0.4899  0.0013 -0.0006  0.0268
                                           -0.0127 -0.8090 -0.0023  0.3223 -0.0061
                                           -0.0016  0.0003 -0.0156 -0.0184 -0.0069
                ( 61.66%)  -0.7852* H   8 s(100.00%)
                                            1.0000  0.0011
    73. (0.00579) BD*( 1) C   3 - H   9  
                ( 37.95%)   0.6160* C   3 s( 24.19%)p 3.13( 75.75%)d 0.00(  0.06%)
                                            0.0000 -0.4918 -0.0006  0.0007 -0.6651
                                           -0.0030 -0.4937  0.0105 -0.2667  0.0089
                                           -0.0185 -0.0107 -0.0077 -0.0048  0.0085
                ( 62.05%)  -0.7877* H   9 s(100.00%)
                                           -1.0000 -0.0009
    74. (0.00453) BD*( 1) C   3 - H  10  
                ( 38.63%)   0.6215* C   3 s( 23.77%)p 3.20( 76.17%)d 0.00(  0.06%)
                                           -0.0001  0.4875  0.0019 -0.0007  0.1051
                                            0.0153 -0.8028 -0.0008  0.3254 -0.0061
                                           -0.0035  0.0016 -0.0156 -0.0183 -0.0069
                ( 61.37%)  -0.7834* H  10 s(100.00%)
                                            1.0000 -0.0001
    75. (0.00899) BD*( 1) C   3 - H  11  
                ( 38.26%)   0.6186* C   3 s( 23.91%)p 3.18( 76.03%)d 0.00(  0.06%)
                                           -0.0000  0.4890  0.0035 -0.0007  0.0262
                                            0.0162 -0.0521 -0.0029 -0.8698  0.0032
                                           -0.0001 -0.0004  0.0026 -0.0004  0.0247
                ( 61.74%)  -0.7857* H  11 s(100.00%)
                                            1.0000  0.0022
    76. (0.00677) BD*( 1) O   4 - H  12  
                ( 26.48%)   0.5146* O   4 s( 19.68%)p 4.08( 80.21%)d 0.01(  0.11%)
                                            0.0001 -0.4431  0.0210 -0.0014  0.7598
                                            0.0125 -0.4136 -0.0326 -0.2289  0.0070
                                            0.0092  0.0213 -0.0031 -0.0218  0.0092
                ( 73.52%)  -0.8574* H  12 s(100.00%)
                                           -1.0000  0.0036


 NHO Directionality and "Bond Bending" (deviations from line of nuclear centers)

         [Thresholds for printing:  angular deviation  >  1.0 degree]
                                    hybrid p-character > 25.0%
                                    orbital occupancy  >  0.10e

                                Line of Centers        Hybrid 1              Hybrid 2
                                ---------------  -------------------   ------------------
                NBO               Theta   Phi    Theta   Phi    Dev    Theta   Phi    Dev
 ========================================================================================
     1. BD (   1) C   1 - C   2   107.8  214.1   108.3  212.5   1.6      --     --    --
     2. BD (   1) C   1 - C   3   107.3  335.6   107.6  336.7   1.1      --     --    --
     3. BD (   1) C   1 - O   4   111.8   91.7   110.4   93.2   2.0     66.7  270.8   1.7
     4. BD (   1) C   1 - H   5     2.2  100.6     5.2   95.3   3.0      --     --    --
     6. BD (   1) C   2 - H   7   176.8  255.9   175.9  245.5   1.1      --     --    --
     9. BD (   1) C   3 - H  10    68.0  277.4    68.6  278.5   1.1      --     --    --
    10. BD (   1) C   3 - H  11   176.4  298.8   175.4  307.6   1.2      --     --    --
    11. BD (   1) O   4 - H  12    73.6  154.5    76.0  150.0   5.0      --     --    --
    16. LP (   1) O   4             --     --    127.2   35.8   --       --     --    --
    17. LP (   2) O   4             --     --     35.9   38.7   --       --     --    --


 Second Order Perturbation Theory Analysis of Fock Matrix in NBO Basis

     Threshold for printing:   0.50 kcal/mol
                                                                              E(2)  E(j)-E(i) F(i,j)
         Donor NBO (i)                     Acceptor NBO (j)                 kcal/mol   a.u.    a.u. 
 ===================================================================================================

 within unit  1
   1. BD (   1) C   1 - C   2        / 38. RY*(   1) C   3                    0.76    1.41    0.029
   1. BD (   1) C   1 - C   2        / 67. BD*(   1) C   1 - C   3            0.74    1.00    0.024
   1. BD (   1) C   1 - C   2        / 70. BD*(   1) C   2 - H   6            0.52    1.04    0.021
   1. BD (   1) C   1 - C   2        / 71. BD*(   1) C   2 - H   7            0.52    1.05    0.021
   1. BD (   1) C   1 - C   2        / 72. BD*(   1) C   2 - H   8            0.57    1.05    0.022
   1. BD (   1) C   1 - C   2        / 73. BD*(   1) C   3 - H   9            1.66    1.07    0.038
   2. BD (   1) C   1 - C   3        / 28. RY*(   1) C   2                    1.04    1.43    0.034
   2. BD (   1) C   1 - C   3        / 49. RY*(   2) O   4                    0.77    1.85    0.034
   2. BD (   1) C   1 - C   3        / 66. BD*(   1) C   1 - C   2            0.64    0.98    0.023
   2. BD (   1) C   1 - C   3        / 69. BD*(   1) C   1 - H   5            0.51    1.05    0.021
   2. BD (   1) C   1 - C   3        / 70. BD*(   1) C   2 - H   6            1.74    1.04    0.038
   2. BD (   1) C   1 - C   3        / 73. BD*(   1) C   3 - H   9            0.55    1.06    0.022
   2. BD (   1) C   1 - C   3        / 76. BD*(   1) O   4 - H  12            2.02    1.03    0.041
   3. BD (   1) C   1 - O   4        / 72. BD*(   1) C   2 - H   8            1.20    1.24    0.034
   3. BD (   1) C   1 - O   4        / 74. BD*(   1) C   3 - H  10            1.45    1.25    0.038
   4. BD (   1) C   1 - H   5        / 29. RY*(   2) C   2                    0.64    1.39    0.027
   4. BD (   1) C   1 - H   5        / 39. RY*(   2) C   3                    0.63    1.40    0.027
   4. BD (   1) C   1 - H   5        / 48. RY*(   1) O   4                    0.63    1.58    0.028
   4. BD (   1) C   1 - H   5        / 71. BD*(   1) C   2 - H   7            2.89    0.95    0.047
   4. BD (   1) C   1 - H   5        / 75. BD*(   1) C   3 - H  11            2.89    0.95    0.047
   5. BD (   1) C   2 - H   6        / 67. BD*(   1) C   1 - C   3            2.99    0.89    0.046
   6. BD (   1) C   2 - H   7        / 18. RY*(   1) C   1                    0.75    1.30    0.028
   6. BD (   1) C   2 - H   7        / 69. BD*(   1) C   1 - H   5            2.51    0.94    0.044
   7. BD (   1) C   2 - H   8        / 68. BD*(   1) C   1 - O   4            4.22    0.80    0.052
   8. BD (   1) C   3 - H   9        / 66. BD*(   1) C   1 - C   2            3.19    0.87    0.047
   8. BD (   1) C   3 - H   9        / 68. BD*(   1) C   1 - O   4            0.61    0.79    0.020
   9. BD (   1) C   3 - H  10        / 68. BD*(   1) C   1 - O   4            3.76    0.79    0.049
  10. BD (   1) C   3 - H  11        / 69. BD*(   1) C   1 - H   5            2.58    0.94    0.044
  11. BD (   1) O   4 - H  12        / 18. RY*(   1) C   1                    0.83    1.50    0.031
  11. BD (   1) O   4 - H  12        / 67. BD*(   1) C   1 - C   3            2.75    1.09    0.049
  12. CR (   1) C   1                / 30. RY*(   3) C   2                    0.91   11.03    0.090
  12. CR (   1) C   1                / 40. RY*(   3) C   3                    0.73   11.18    0.080
  12. CR (   1) C   1                / 68. BD*(   1) C   1 - O   4            1.13   10.41    0.097
  13. CR (   1) C   2                / 18. RY*(   1) C   1                    0.70   10.86    0.078
  15. CR (   1) O   4                / 18. RY*(   1) C   1                    1.59   19.76    0.158
  15. CR (   1) O   4                / 21. RY*(   4) C   1                    0.80   20.16    0.113
  16. LP (   1) O   4                / 18. RY*(   1) C   1                    2.86    1.40    0.057
  16. LP (   1) O   4                / 66. BD*(   1) C   1 - C   2            1.18    0.97    0.030
  16. LP (   1) O   4                / 67. BD*(   1) C   1 - C   3            1.04    0.98    0.029
  16. LP (   1) O   4                / 69. BD*(   1) C   1 - H   5            1.19    1.04    0.032
  16. LP (   1) O   4                / 74. BD*(   1) C   3 - H  10            0.51    1.04    0.021
  17. LP (   2) O   4                / 19. RY*(   2) C   1                    0.79    1.53    0.031
  17. LP (   2) O   4                / 66. BD*(   1) C   1 - C   2            5.99    0.67    0.057
  17. LP (   2) O   4                / 69. BD*(   1) C   1 - H   5            5.99    0.73    0.059
  17. LP (   2) O   4                / 72. BD*(   1) C   2 - H   8            0.79    0.73    0.022


 Natural Bond Orbitals (Summary):

                                                            Principal Delocalizations
           NBO                        Occupancy    Energy   (geminal,vicinal,remote)
 ====================================================================================
 Molecular unit  1  (C3H8O)
     1. BD (   1) C   1 - C   2          1.99050    -0.59751  73(v),38(v),67(g),72(g)
                                                    70(g),71(g)
     2. BD (   1) C   1 - C   3          1.98443    -0.59366  76(v),70(v),28(v),49(v)
                                                    66(g),73(g),69(g)
     3. BD (   1) C   1 - O   4          1.99328    -0.79257  74(v),72(v)
     4. BD (   1) C   1 - H   5          1.98021    -0.49145  71(v),75(v),29(v),48(v)
                                                    39(v)
     5. BD (   1) C   2 - H   6          1.98889    -0.49527  67(v)
     6. BD (   1) C   2 - H   7          1.99023    -0.49092  69(v),18(v)
     7. BD (   1) C   2 - H   8          1.98597    -0.49472  68(v)
     8. BD (   1) C   3 - H   9          1.98862    -0.48445  66(v),68(v)
     9. BD (   1) C   3 - H  10          1.98602    -0.48946  68(v)
    10. BD (   1) C   3 - H  11          1.98976    -0.48467  69(v)
    11. BD (   1) O   4 - H  12          1.98948    -0.68857  67(v),18(v)
    12. CR (   1) C   1                  1.99919   -10.11012  68(g),30(v),40(v)
    13. CR (   1) C   2                  1.99941   -10.04493  18(v)
    14. CR (   1) C   3                  1.99940   -10.03827   
    15. CR (   1) O   4                  1.99983   -18.94391  18(v),21(v)
    16. LP (   1) O   4                  1.98167    -0.58507  18(v),69(v),66(v),67(v)
                                                    74(r)
    17. LP (   2) O   4                  1.95988    -0.27864  66(v),69(v),19(v),72(r)
    18. RY*(   1) C   1                  0.00491     0.81132   
    19. RY*(   2) C   1                  0.00228     1.24944   
    20. RY*(   3) C   1                  0.00211     1.50102   
    21. RY*(   4) C   1                  0.00115     1.21562   
    22. RY*(   5) C   1                  0.00095     1.72203   
    23. RY*(   6) C   1                  0.00062     2.18367   
    24. RY*(   7) C   1                  0.00021     2.06892   
    25. RY*(   8) C   1                  0.00013     1.72966   
    26. RY*(   9) C   1                  0.00007     2.44115   
    27. RY*(  10) C   1                  0.00000     3.52184   
    28. RY*(   1) C   2                  0.00227     0.83188   
    29. RY*(   2) C   2                  0.00135     0.89445   
    30. RY*(   3) C   2                  0.00045     0.92188   
    31. RY*(   4) C   2                  0.00022     1.94405   
    32. RY*(   5) C   2                  0.00012     1.25510   
    33. RY*(   6) C   2                  0.00001     2.13668   
    34. RY*(   7) C   2                  0.00001     1.92424   
    35. RY*(   8) C   2                  0.00000     1.85077   
    36. RY*(   9) C   2                  0.00000     3.93534   
    37. RY*(  10) C   2                  0.00001     1.96191   
    38. RY*(   1) C   3                  0.00242     0.80932   
    39. RY*(   2) C   3                  0.00190     0.90507   
    40. RY*(   3) C   3                  0.00057     1.06737   
    41. RY*(   4) C   3                  0.00020     1.11877   
    42. RY*(   5) C   3                  0.00007     2.10761   
    43. RY*(   6) C   3                  0.00003     1.89899   
    44. RY*(   7) C   3                  0.00000     2.01962   
    45. RY*(   8) C   3                  0.00000     1.89387   
    46. RY*(   9) C   3                  0.00001     2.10000   
    47. RY*(  10) C   3                  0.00000     3.84105   
    48. RY*(   1) O   4                  0.00182     1.08407   
    49. RY*(   2) O   4                  0.00151     1.25516   
    50. RY*(   3) O   4                  0.00037     1.56445   
    51. RY*(   4) O   4                  0.00002     1.22238   
    52. RY*(   5) O   4                  0.00002     2.41444   
    53. RY*(   6) O   4                  0.00001     1.93223   
    54. RY*(   7) O   4                  0.00001     1.97009   
    55. RY*(   8) O   4                  0.00001     2.06893   
    56. RY*(   9) O   4                  0.00000     3.58692   
    57. RY*(  10) O   4                  0.00001     1.98240   
    58. RY*(   1) H   5                  0.00259     0.63414   
    59. RY*(   1) H   6                  0.00113     0.65090   
    60. RY*(   1) H   7                  0.00185     0.65937   
    61. RY*(   1) H   8                  0.00121     0.65159   
    62. RY*(   1) H   9                  0.00117     0.65698   
    63. RY*(   1) H  10                  0.00074     0.65910   
    64. RY*(   1) H  11                  0.00164     0.66692   
    65. RY*(   1) H  12                  0.00161     0.62929   
    66. BD*(   1) C   1 - C   2          0.02624     0.38933   
    67. BD*(   1) C   1 - C   3          0.01877     0.39831   
    68. BD*(   1) C   1 - O   4          0.02915     0.30471   
    69. BD*(   1) C   1 - H   5          0.03280     0.45218   
    70. BD*(   1) C   2 - H   6          0.00610     0.44432   
    71. BD*(   1) C   2 - H   7          0.00897     0.45457   
    72. BD*(   1) C   2 - H   8          0.00734     0.45078   
    73. BD*(   1) C   3 - H   9          0.00579     0.46766   
    74. BD*(   1) C   3 - H  10          0.00453     0.45635   
    75. BD*(   1) C   3 - H  11          0.00899     0.45919   
    76. BD*(   1) O   4 - H  12          0.00677     0.43951   
       -------------------------------
              Total Lewis   33.80675  ( 99.4316%)
        Valence non-Lewis    0.15547  (  0.4573%)
        Rydberg non-Lewis    0.03778  (  0.1111%)
       -------------------------------
            Total unit  1   34.00000  (100.0000%)
           Charge unit  1    0.00000
 Sorting of NBOs:                   15   12   13   14    3   11    1    2   16    5
 Sorting of NBOs:                    7    4    6    9   10    8   17   68   66   67
 Sorting of NBOs:                   76   70   72   69   71   74   75   73   65   58
 Sorting of NBOs:                   59   61   62   63   60   64   38   18   28   29
 Sorting of NBOs:                   39   30   40   48   41   21   51   19   32   49
 Sorting of NBOs:                   20   50   22   25   35   45   43   34   53   31
 Sorting of NBOs:                   37   54   57   44   24   55   46   42   33   23
 Sorting of NBOs:                   52   26   27   56   47   36
 Reordering of NBOs for storage:    15   12   13   14    3   11    1    2   16    5
 Reordering of NBOs for storage:     7    4    6    9   10    8   17   68   66   67
 Reordering of NBOs for storage:    76   70   72   69   71   74   75   73   65   58
 Reordering of NBOs for storage:    59   61   62   63   60   64   38   18   28   29
 Reordering of NBOs for storage:    39   30   40   48   41   21   51   19   32   49
 Reordering of NBOs for storage:    20   50   22   25   35   45   43   34   53   31
 Reordering of NBOs for storage:    37   54   57   44   24   55   46   42   33   23
 Reordering of NBOs for storage:    52   26   27   56   47   36
 Labels of output orbitals:  CR  CR  CR  CR  BD  BD  BD  BD  LP  BD  BD  BD  BD  BD  BD  BD  LP  BD* BD* BD* 
 Labels of output orbitals:  BD* BD* BD* BD* BD* BD* BD* BD* RY* RY* RY* RY* RY* RY* RY* RY* RY* RY* RY* RY* 
 Labels of output orbitals:  RY* RY* RY* RY* RY* RY* RY* RY* RY* RY* RY* RY* RY* RY* RY* RY* RY* RY* RY* RY* 
 Labels of output orbitals:  RY* RY* RY* RY* RY* RY* RY* RY* RY* RY* RY* RY* RY* RY* RY* RY* 
 GSVD:  LWork=       -3953 too small for GESVD, short by       18290 words or       18290 for optimal perf.
 Leave Link  607 at Tue Mar  8 23:13:43 2022, MaxMem=   104857600 cpu:               0.3 elap:               0.5
 (Enter /rds/general/project/gaussian-development/live/home/gaussiangdvJ05_pgi_18/gdv/l9999.exe)
 Unable to Open any file for archive entry.
 1\1\GINC-CX2-4-0-0\SP\RB3LYP\6-31G(d)\C3H8O1\DD2120\08-Mar-2022\0\\#P 
 B3LYP/6-31G* Pop=(NBO,SaveNBOs) NoSymm\\Isopropanol Natural Bond Orbit
 als\\0,1\C,0,0.001801,0.041902,0.365218\C,0,-1.204473,-0.774728,-0.103
 444\C,0,1.32661,-0.559396,-0.088767\O,0,-0.037269,1.37004,-0.165983\H,
 0,-0.00609,0.084106,1.468275\H,0,-2.144853,-0.313212,0.225743\H,0,-1.2
 19542,-0.834678,-1.197611\H,0,-1.176931,-1.793062,0.301878\H,0,2.16109
 4,0.065528,0.2444\H,0,1.457943,-1.566683,0.321209\H,0,1.359788,-0.6196
 27,-1.182512\H,0,-0.876885,1.770635,0.108436\\Version=EM64L-GDVRevJ.05
 \HF=-194.3533105\RMSD=7.532e-09\Dipole=-0.4566955,-0.2536007,0.3210814
 \Quadrupole=0.7227073,-0.3736344,-0.3490728,-2.0070288,-0.197679,0.823
 4001\PG=C01 [X(C3H8O1)]\\@
 The archive entry for this job was punched.


 A true friend is someone who is there for
 you when he'd rather be anywhere else.
                               -- Len Wein
 Job cpu time:       0 days  0 hours  0 minutes 16.7 seconds.
 Elapsed time:       0 days  0 hours  0 minutes 17.4 seconds.
 File lengths (MBytes):  RWF=     17 Int=      0 D2E=      0 Chk=      2 Scr=      2
 Normal termination of Gaussian DV at Tue Mar  8 23:13:44 2022.
 Initial command:
 /rds/general/project/gaussian-development/live/home/gaussiangdvJ05_pgi_18/gdv/l1.exe "/rds/general/ephemeral/tmpdir/pbs.5262840.pbs/Gau-803585.inp" -scrdir="/rds/general/ephemeral/tmpdir/pbs.5262840.pbs/"
 Entering Link 1 = /rds/general/project/gaussian-development/live/home/gaussiangdvJ05_pgi_18/gdv/l1.exe PID=    803595.
  
 Copyright (c) 1988-2019, Gaussian, Inc.  All Rights Reserved.
  
 This is the private, development version of
 the Gaussian(R) DV system of programs. It is based on
 the Gaussian(R) 16 system (copyright 2016, Gaussian, Inc.),
 the Gaussian(R) 09 system (copyright 2009, Gaussian, Inc.),
 the Gaussian(R) 03 system (copyright 2003, Gaussian, Inc.),
 the Gaussian(R) 98 system (copyright 1998, Gaussian, Inc.),
 the Gaussian(R) 94 system (copyright 1995, Gaussian, Inc.),
 the Gaussian 92(TM) system (copyright 1992, Gaussian, Inc.),
 the Gaussian 90(TM) system (copyright 1990, Gaussian, Inc.),
 the Gaussian 88(TM) system (copyright 1988, Gaussian, Inc.),
 the Gaussian 86(TM) system (copyright 1986, Carnegie Mellon
 University), and the Gaussian 82(TM) system (copyright 1983,
 Carnegie Mellon University). Gaussian is a federally registered
 trademark of Gaussian, Inc.
  
 This software contains proprietary and confidential information,
 including trade secrets, belonging to Gaussian, Inc.
  
 This software is provided under written license and may be
 used, copied, transmitted, or stored only in accord with that
 written license.
  
 The following legend is applicable only to US Government
 contracts under FAR:
  
                    RESTRICTED RIGHTS LEGEND
  
 Use, reproduction and disclosure by the US Government is
 subject to restrictions as set forth in subparagraphs (a)
 and (c) of the Commercial Computer Software - Restricted
 Rights clause in FAR 52.227-19.
  
 Gaussian, Inc.
 340 Quinnipiac St., Bldg. 40, Wallingford CT 06492
  
  
 ---------------------------------------------------------------
 Warning -- This program may not be used in any manner that
 competes with the business of Gaussian, Inc. or will provide
 assistance to any competitor of Gaussian, Inc.  The licensee
 of this program is prohibited from giving any competitor of
 Gaussian, Inc. access to this program.  By using this program,
 the user acknowledges that Gaussian, Inc. is engaged in the
 business of creating and licensing software in the field of
 computational chemistry and represents and warrants to the
 licensee that it is not a competitor of Gaussian, Inc. and that
 it will not use this program in any manner prohibited above.
 ---------------------------------------------------------------
  

 Cite this work as:
 Gaussian Development Version, Revision J.05,
 M. J. Frisch, G. W. Trucks, H. B. Schlegel, G. E. Scuseria, 
 M. A. Robb, J. R. Cheeseman, G. Scalmani, V. Barone, 
 G. A. Petersson, H. Nakatsuji, X. Li, M. Caricato, A. V. Marenich, 
 J. Bloino, B. G. Janesko, R. Gomperts, B. Mennucci, H. P. Hratchian, 
 J. V. Ortiz, A. F. Izmaylov, J. L. Sonnenberg, D. Williams-Young, 
 F. Ding, F. Lipparini, F. Egidi, J. Goings, B. Peng, A. Petrone, 
 T. Henderson, D. Ranasinghe, V. G. Zakrzewski, J. Gao, N. Rega, 
 G. Zheng, W. Liang, M. Hada, M. Ehara, K. Toyota, R. Fukuda, 
 J. Hasegawa, M. Ishida, T. Nakajima, Y. Honda, O. Kitao, H. Nakai, 
 T. Vreven, K. Throssell, J. A. Montgomery, Jr., J. E. Peralta, 
 F. Ogliaro, M. J. Bearpark, J. J. Heyd, E. N. Brothers, K. N. Kudin, 
 V. N. Staroverov, T. A. Keith, R. Kobayashi, J. Normand, 
 K. Raghavachari, A. P. Rendell, J. C. Burant, S. S. Iyengar, 
 J. Tomasi, M. Cossi, J. M. Millam, M. Klene, C. Adamo, R. Cammi, 
 J. W. Ochterski, R. L. Martin, K. Morokuma, O. Farkas, 
 J. B. Foresman, and D. J. Fox, Gaussian, Inc., Wallingford CT, 2019.
 
 ******************************************
 Gaussian DV:  EM64L-GDVRevJ.05 25-Dec-2019
                 8-Mar-2022 
 ******************************************
 %Oldchk=isopropanol_CAS_NBOsF.chk
 %Chk=isopropanol_CASF.chk
 %mem=7GB
 %subst l510 /rds/general/user/jg3018/projects/gaussian-development/live/home/gau
 ssiangdvJ05_pgi_18/gdvtest_v13_j05_cx1/l510
 Copying data from "isopropanol_CAS_NBOsF.chk" to current chk file "isopropanol_CASF.chk"
 IOpt=  2 FromEx=T IUOpen= 4 IOptOp= 5 NList=   0 IFRang= 0 IUIn= 4 IUOut= 2.
 ----------------------------------------------------------------------
 #P CASSCF(11,6,NRoot=6,StateAverage) Guess=(Read, Permute) Geom=Check 
 ChkBasis NoSymm IOp(4/6=200000000, 4/21=20,4/43=1,4/69=2) IOp(5/14=11,
  5/17=11000015)
 ----------------------------------------------------------------------
 1/29=2,38=1,172=1/1;
 2/12=2,15=1,40=1/2;
 3/5=7,6=2,14=-4,25=1,67=1,116=101/1,2,3;
[...]
     26  0.272927D+00 -0.587712D+00 -0.179022D+01 -0.770115D-01 -0.528071D-01
     27 -0.277508D+00 -0.755882D-02 -0.220649D+00 -0.100468D+01 -0.887371D-01
     28 -0.718585D-01 -0.104646D+01 -0.911302D-01 -0.109380D+00  0.144718D-01
     29  0.107520D+00 -0.707017D+00 -0.186481D+01  0.575525D+00 -0.524662D-01
     30 -0.223857D+00  0.380570D+00  0.325206D+00 -0.114894D+01  0.149617D+00
     31 -0.148390D+00 -0.135740D+01  0.847810D-01 -0.154277D-01  0.201722D+00
     32 -0.757127D-01 -0.139833D-01 -0.106700D+01 -0.357461D-01 -0.279240D+00
     33  0.659705D-01 -0.598070D+00 -0.500020D-01 -0.175077D+01 -0.198113D+00
     34 -0.131522D+00  0.503856D-01 -0.574178D+00 -0.827418D-01 -0.242570D+01
     35  0.336150D-01 -0.701344D-01  0.265905D+00  0.706152D-01  0.808317D+00
     36  0.323497D-01 -0.148911D+00  0.378024D-01  0.731042D-01  0.491267D+00
               11            12            13            14            15 
     11  0.266227D+02
     12 -0.562024D+01  0.134204D+02
     13  0.205573D+00  0.211919D+00  0.964943D+00
     14  0.315929D+00 -0.127138D+00  0.522483D-01  0.864231D+00
     15  0.824132D+00 -0.156708D+00  0.324384D-01 -0.943326D-01  0.293112D+01
     16 -0.356325D-01  0.150103D+00  0.238826D-01 -0.367897D-01  0.436556D-01
     17 -0.157307D+00 -0.129321D+00 -0.484172D-01 -0.457227D-01  0.447413D-01
     18  0.253546D-01 -0.144710D+00  0.534414D-02 -0.925393D-02  0.272092D-01
     19  0.123987D+00 -0.508252D-01  0.796120D-02  0.154491D-01 -0.363836D-01
     20  0.146519D+00 -0.139952D+00 -0.683860D-02  0.211348D-01  0.329397D-01
     21 -0.519063D-01 -0.267567D+00  0.466701D-01 -0.209190D-03  0.208011D-01
     22  0.337608D-01  0.271568D+00  0.295982D-01 -0.387406D-01  0.669484D-01
     23  0.231354D+00 -0.301342D+00  0.170871D-01 -0.291038D-01  0.865877D-01
     24  0.315608D+00 -0.329398D-03  0.511910D-01  0.992716D-01 -0.120102D-01
     25 -0.110172D+00 -0.119242D+00  0.109739D+00  0.105400D-01 -0.174728D-01
     26 -0.224074D+00  0.175098D+00  0.401237D-01 -0.134843D-01  0.111265D+00
     27 -0.196034D+00 -0.242006D+00 -0.713070D-01  0.287686D-01 -0.576994D-02
     28 -0.332959D+00  0.236154D+00 -0.272658D-01  0.745202D-03 -0.459330D-01
     29  0.485875D+00 -0.221604D+00 -0.430975D-01  0.646292D-01  0.120058D+00
     30  0.159263D-01  0.675535D-01  0.137365D-01  0.968832D-02 -0.993037D-03
     31 -0.227351D+00  0.211638D+00 -0.236318D-01  0.440993D-01  0.308623D-01
     32  0.383246D+00  0.187416D+00  0.339822D-01  0.166568D-02 -0.328905D-01
     33  0.750219D+00  0.815851D-01  0.221220D-01  0.415248D-01 -0.502518D-01
     34  0.148128D+00  0.660342D+00 -0.238470D-02 -0.653275D-01  0.438430D-01
     35 -0.131639D+01 -0.229270D+00  0.459727D-03  0.302649D-01 -0.822987D-02
     36 -0.119815D+00 -0.110728D+01 -0.648641D-01 -0.178128D-01 -0.999704D-01
               16            17            18            19            20 
     16  0.195815D+01
     17 -0.550660D+00  0.101669D+01
     18 -0.465625D+00  0.157162D+00  0.859596D+00
     19  0.184025D-01  0.520102D-01 -0.866908D-01  0.689807D+00
     20  0.433350D-01  0.110662D+00  0.445771D-01  0.213685D-01  0.687707D+00
     21  0.316455D+00 -0.136485D+00 -0.872371D-01  0.670652D-01  0.360909D-01
     22  0.304590D-01 -0.706276D-01  0.154600D+00  0.821460D-01  0.285630D-01
     23  0.156690D+00 -0.368755D-01  0.532753D-02 -0.482863D-01  0.313091D-01
     24 -0.123127D-01  0.478277D-01  0.122613D-01  0.827998D-02 -0.562387D-02
     25 -0.507722D-01 -0.278746D-01 -0.515827D-01  0.939296D-01 -0.387288D-01
     26 -0.223556D-01  0.383503D-02  0.280055D-01  0.766806D-02  0.712052D-01
     27 -0.491346D-01 -0.447013D-02  0.419758D-01 -0.445220D-01  0.539313D-01
     28 -0.172903D-01  0.393445D-01  0.209559D-01  0.343371D-01  0.396675D-01
     29 -0.370211D-01 -0.834695D-01  0.810106D-02 -0.810649D-02 -0.667373D-01
     30 -0.849580D-02  0.321374D-01  0.189058D-01  0.116496D-01 -0.339309D-01
     31  0.404572D-01  0.271300D-01 -0.227556D-01  0.438150D-01  0.581439D-01
     32  0.327388D-01 -0.191672D-03  0.175244D-01 -0.127867D-01 -0.348559D-01
     33  0.113623D-01  0.485099D-02  0.716573D-01 -0.192269D-01 -0.315973D-02
     34 -0.579169D-01  0.462101D-02  0.831725D-02 -0.717678D-01  0.460041D-01
     35  0.106328D+00  0.177726D-01  0.326380D-01  0.661684D-01 -0.133724D-01
     36  0.130503D-01  0.554232D-01 -0.137213D-01  0.394335D-01  0.446829D-01
               21            22            23            24            25 
     21  0.228072D+01
     22 -0.798476D-01  0.654221D+00
     23  0.152632D+00 -0.785174D-01  0.191088D+01
     24 -0.225508D-01  0.469909D-01 -0.501144D+00  0.801781D+00
     25  0.114225D+00 -0.162947D-01 -0.134884D-01 -0.553174D-01  0.184296D+01
     26 -0.601930D-01  0.728397D-02  0.594729D-01 -0.357174D-01  0.752898D+00
     27  0.774221D-01 -0.194651D-01 -0.277734D-01 -0.271823D-01  0.333879D+00
     28  0.236399D-01 -0.425345D-01  0.109218D+00 -0.276567D-01  0.479354D-01
     29 -0.465116D-01  0.724649D-01 -0.244140D-01 -0.798426D-01 -0.169542D+00
     30  0.910450D-01 -0.199642D-01  0.524144D-01  0.633523D-02  0.700699D-02
     31  0.416921D-01 -0.845405D-02  0.111941D-01 -0.201433D-01  0.100221D-01
     32 -0.425282D-01 -0.276163D-01 -0.190186D-01  0.220256D-01  0.468861D-01
     33 -0.739458D-01 -0.159749D-01 -0.320141D-02 -0.388785D-01 -0.793992D-01
     34  0.491077D-01 -0.806654D-01 -0.317239D-01 -0.800336D-02  0.498834D-01
     35 -0.153532D-01  0.439498D-01  0.882841D-01 -0.850621D-01 -0.381534D-01
     36  0.442668D-03 -0.941953D-02 -0.168695D-01 -0.295179D-01  0.111234D+00
               26            27            28            29            30 
     26  0.135089D+01
     27  0.272085D+00  0.823981D+00
     28  0.779308D-01  0.800159D-02  0.704209D+00
     29 -0.117469D+00 -0.624605D-01 -0.968129D-01  0.196484D+01
     30  0.105339D+00  0.483137D-01  0.715321D-01 -0.555678D+00  0.830390D+00
     31 -0.365585D-01  0.103801D+00  0.113772D+00 -0.694172D-01  0.209820D-01
     32  0.112385D+00  0.676507D-01  0.212704D-01 -0.206713D-01 -0.789732D-01
     33 -0.166277D+00 -0.128493D+00 -0.502584D-01  0.259387D+00 -0.133159D+00
     34  0.877358D-02  0.241276D-02  0.270246D-01  0.437559D-01 -0.158904D-01
     35  0.218384D-01 -0.418643D-01 -0.924795D-02 -0.791705D-01  0.112406D-01
     36  0.108939D+00  0.376163D-01  0.178248D-01  0.458488D-02  0.181132D-01
               31            32            33            34            35 
     31  0.699238D+00
     32  0.118319D-01  0.806954D+00
     33 -0.926187D-01  0.133030D+00  0.223055D+01
     34 -0.528142D-01 -0.218596D-01  0.796347D-01  0.247002D+01
     35  0.432962D-01 -0.435831D-01 -0.133009D+00 -0.751254D+00  0.132287D+01
     36 -0.218072D-01 -0.418954D-01  0.754549D-03 -0.515350D+00  0.221212D+00
               36 
     36  0.102557D+01
 -------------------------------------------------------------------
 Center     Atomic                   Forces (Hartrees/Bohr)
 Number     Number              X              Y              Z
 -------------------------------------------------------------------
      1        6          -0.057671324    0.040392278    0.052647512
      2        6          -0.067880520    0.012902031   -0.011391939
      3        6           0.144050826   -0.046736633   -0.014962540
      4        8           0.071431127   -0.075461797   -0.052321175
      5        1          -0.008032998    0.006147260   -0.017202339
      6        1           0.006278191   -0.002768516   -0.000940488
      7        1           0.000909903    0.000480071    0.012919902
      8        1           0.001343366    0.015475394   -0.003537149
      9        1           0.004652911   -0.001379718    0.000169642
     10        1           0.000692432    0.001401094   -0.000785071
     11        1           0.000476222   -0.001552869    0.000955795
     12        1          -0.096250136    0.051101404    0.034447850
 -------------------------------------------------------------------
 Cartesian Forces:  Max     0.144050826 RMS     0.041928108
 Z-matrix is all fixed cartesians, so copy forces.
 Force constants in Cartesian coordinates: 
                1             2             3             4             5 
      1  0.529470D+02
      2  0.228258D+01  0.539607D+02
      3 -0.153309D+01  0.518487D+00  0.418216D+02
      4 -0.172013D+02 -0.655344D+01 -0.423829D+01  0.216760D+02
      5 -0.608708D+01 -0.139816D+02 -0.397438D+01  0.645688D+01  0.177469D+02
      6 -0.477492D+01 -0.195443D+01 -0.129094D+02  0.464275D+01  0.249808D+01
      7 -0.221699D+02  0.462374D+01  0.589392D+01 -0.155089D+01 -0.370048D+00
      8  0.409547D+01 -0.136048D+02 -0.104992D+01  0.939074D+00  0.147417D+01
      9  0.548432D+01 -0.492989D+00 -0.128212D+02 -0.226702D+00 -0.380257D+00
     10 -0.116152D+02 -0.162901D+01  0.137996D+01  0.704003D+00 -0.352981D+00
     11 -0.122558D+01 -0.251790D+02  0.453595D+01 -0.152330D+01 -0.963057D+00
     12 -0.129179D+00  0.362358D+01 -0.152238D+02  0.563776D+00  0.182063D+01
     13 -0.154510D+01 -0.266275D+00 -0.205145D+00  0.266916D-02 -0.457746D-01
     14  0.123485D+00 -0.159204D+01  0.483742D+00  0.824383D-01  0.262755D+00
     15  0.436973D+00  0.280550D+00 -0.277525D+01 -0.831445D+00 -0.596053D+00
     16 -0.775578D+00 -0.776691D-01 -0.624486D+00 -0.161008D+01  0.454399D+00
     17  0.398751D+00  0.630281D+00 -0.331147D-01  0.297743D+00 -0.135956D+01
     18  0.705950D+00  0.440206D-02  0.717052D+00 -0.174926D+00 -0.411228D+00
     19  0.199883D+00 -0.266655D+00  0.946656D-01 -0.960331D+00  0.210219D-01
     20 -0.228352D+00  0.163807D+00  0.751811D-01 -0.742204D-01 -0.113169D+01
     21 -0.375757D+00 -0.603760D+00  0.346091D+00  0.389580D+00  0.561264D+00
     22  0.584272D-01  0.795091D-01 -0.208911D+00 -0.128619D+01  0.130224D+00
     23 -0.637836D+00 -0.700881D+00  0.264029D+00  0.772329D+00 -0.159803D+01
     24  0.411172D+00 -0.293515D+00 -0.252810D-01 -0.600185D+00  0.261793D+00
     25 -0.621112D+00 -0.189402D+00 -0.307610D+00  0.329923D+00  0.302088D+00
     26 -0.212293D+00  0.736879D+00 -0.734460D+00  0.170477D-01 -0.211256D+00
     27 -0.269842D+00  0.200726D+00  0.656329D+00  0.102472D+00 -0.699095D-01
     28  0.345050D+00  0.486687D+00 -0.730214D-01 -0.153250D+00 -0.244713D+00
     29  0.986631D+00 -0.412411D+00 -0.109079D+00  0.806287D-01  0.153811D+00
     30 -0.762364D+00  0.490976D-01  0.426291D+00  0.151621D+00  0.675322D-01
     31  0.423116D+00  0.318269D+00 -0.878326D-01 -0.898398D-01 -0.265418D+00
     32  0.276151D+00  0.262526D-01 -0.119900D+00 -0.673741D-01 -0.145187D+00
     33  0.942856D+00 -0.110860D+01 -0.275015D+00 -0.231461D-02  0.275233D+00
     34 -0.453892D-01  0.119166D+01 -0.901505D-01  0.139318D+00  0.139823D-02
     35  0.228074D+00 -0.472061D-01  0.143468D+00 -0.427803D+00 -0.247215D+00
     36 -0.136122D+00 -0.223549D+00  0.625401D-01  0.223664D+00 -0.527028D-01
                6             7             8             9            10 
      6  0.143305D+02
      7 -0.491929D+00  0.254586D+02
      8 -0.804907D+00 -0.472188D+01  0.168075D+02
      9  0.140319D+01 -0.382138D+01  0.101036D+01  0.136662D+02
     10  0.235295D+00  0.162664D+01  0.917447D+00 -0.965754D+00  0.109383D+02
     11 -0.198817D+00  0.258146D+01 -0.345762D+00 -0.280376D+00  0.362088D+00
     12  0.214927D+01 -0.160789D+01  0.962148D+00  0.142353D+01 -0.398364D+00
     13  0.509098D-01  0.143493D+00  0.609279D-01 -0.930151D-01  0.316091D+00
     14 -0.291609D+00 -0.181279D+00  0.119742D+00 -0.122640D+00 -0.686831D-02
     15  0.559537D-02  0.542789D+00 -0.768767D+00  0.116227D+00 -0.266275D+00
     16  0.548920D+00  0.374930D+00 -0.333632D-01  0.765082D-01  0.653626D-01
     17 -0.735123D-01 -0.160337D+00 -0.961152D-01  0.347605D-01  0.383174D-01
     18 -0.131921D+01  0.677493D-01  0.973888D-01 -0.183779D+00 -0.161337D+00
     19  0.116269D+00 -0.162753D+00  0.281616D-01 -0.997142D-01  0.245706D-01
     20 -0.316393D-01  0.146654D+00  0.143099D-01 -0.730968D-01 -0.355958D-01
     21 -0.216100D+01 -0.428490D+00  0.206959D+00 -0.204222D+00 -0.164341D+00
     22 -0.324204D+00  0.265933D+00 -0.180253D+00  0.137680D+00  0.313351D+00
     23  0.518489D+00 -0.539464D+00  0.870196D-01 -0.229150D+00  0.282797D+00
     24 -0.109591D+01  0.219200D+00  0.254380D+00  0.431282D+00 -0.132158D-01
     25  0.348672D+00 -0.163259D+01 -0.525053D+00 -0.284393D+00 -0.163620D+00
     26  0.272927D+00 -0.587712D+00 -0.179022D+01 -0.770115D-01 -0.528071D-01
     27 -0.277508D+00 -0.755882D-02 -0.220649D+00 -0.100468D+01 -0.887371D-01
     28 -0.718585D-01 -0.104646D+01 -0.911302D-01 -0.109380D+00  0.144718D-01
     29  0.107520D+00 -0.707017D+00 -0.186481D+01  0.575525D+00 -0.524662D-01
     30 -0.223857D+00  0.380570D+00  0.325206D+00 -0.114894D+01  0.149617D+00
     31 -0.148390D+00 -0.135740D+01  0.847810D-01 -0.154277D-01  0.201722D+00
     32 -0.757127D-01 -0.139833D-01 -0.106700D+01 -0.357461D-01 -0.279240D+00
     33  0.659705D-01 -0.598070D+00 -0.500020D-01 -0.175077D+01 -0.198113D+00
     34 -0.131522D+00  0.503856D-01 -0.574178D+00 -0.827418D-01 -0.242570D+01
     35  0.336150D-01 -0.701344D-01  0.265905D+00  0.706152D-01  0.808317D+00
     36  0.323497D-01 -0.148911D+00  0.378024D-01  0.731042D-01  0.491267D+00
               11            12            13            14            15 
     11  0.266227D+02
     12 -0.562024D+01  0.134204D+02
     13  0.205573D+00  0.211919D+00  0.964943D+00
     14  0.315929D+00 -0.127138D+00  0.522483D-01  0.864231D+00
     15  0.824132D+00 -0.156708D+00  0.324384D-01 -0.943326D-01  0.293112D+01
     16 -0.356325D-01  0.150103D+00  0.238826D-01 -0.367897D-01  0.436556D-01
     17 -0.157307D+00 -0.129321D+00 -0.484172D-01 -0.457227D-01  0.447413D-01
     18  0.253546D-01 -0.144710D+00  0.534414D-02 -0.925393D-02  0.272092D-01
     19  0.123987D+00 -0.508252D-01  0.796120D-02  0.154491D-01 -0.363836D-01
     20  0.146519D+00 -0.139952D+00 -0.683860D-02  0.211348D-01  0.329397D-01
     21 -0.519063D-01 -0.267567D+00  0.466701D-01 -0.209190D-03  0.208011D-01
     22  0.337608D-01  0.271568D+00  0.295982D-01 -0.387406D-01  0.669484D-01
     23  0.231354D+00 -0.301342D+00  0.170871D-01 -0.291038D-01  0.865877D-01
     24  0.315608D+00 -0.329398D-03  0.511910D-01  0.992716D-01 -0.120102D-01
     25 -0.110172D+00 -0.119242D+00  0.109739D+00  0.105400D-01 -0.174728D-01
     26 -0.224074D+00  0.175098D+00  0.401237D-01 -0.134843D-01  0.111265D+00
     27 -0.196034D+00 -0.242006D+00 -0.713070D-01  0.287686D-01 -0.576994D-02
     28 -0.332959D+00  0.236154D+00 -0.272658D-01  0.745202D-03 -0.459330D-01
     29  0.485875D+00 -0.221604D+00 -0.430975D-01  0.646292D-01  0.120058D+00
     30  0.159263D-01  0.675535D-01  0.137365D-01  0.968832D-02 -0.993037D-03
     31 -0.227351D+00  0.211638D+00 -0.236318D-01  0.440993D-01  0.308623D-01
     32  0.383246D+00  0.187416D+00  0.339822D-01  0.166568D-02 -0.328905D-01
     33  0.750219D+00  0.815851D-01  0.221220D-01  0.415248D-01 -0.502518D-01
     34  0.148128D+00  0.660342D+00 -0.238470D-02 -0.653275D-01  0.438430D-01
     35 -0.131639D+01 -0.229270D+00  0.459727D-03  0.302649D-01 -0.822987D-02
     36 -0.119815D+00 -0.110728D+01 -0.648641D-01 -0.178128D-01 -0.999704D-01
               16            17            18            19            20 
     16  0.195815D+01
     17 -0.550660D+00  0.101669D+01
     18 -0.465625D+00  0.157162D+00  0.859596D+00
     19  0.184025D-01  0.520102D-01 -0.866908D-01  0.689807D+00
     20  0.433350D-01  0.110662D+00  0.445771D-01  0.213685D-01  0.687707D+00
     21  0.316455D+00 -0.136485D+00 -0.872371D-01  0.670652D-01  0.360909D-01
     22  0.304590D-01 -0.706276D-01  0.154600D+00  0.821460D-01  0.285630D-01
     23  0.156690D+00 -0.368755D-01  0.532753D-02 -0.482863D-01  0.313091D-01
     24 -0.123127D-01  0.478277D-01  0.122613D-01  0.827998D-02 -0.562387D-02
     25 -0.507722D-01 -0.278746D-01 -0.515827D-01  0.939296D-01 -0.387288D-01
     26 -0.223556D-01  0.383503D-02  0.280055D-01  0.766806D-02  0.712052D-01
     27 -0.491346D-01 -0.447013D-02  0.419758D-01 -0.445220D-01  0.539313D-01
     28 -0.172903D-01  0.393445D-01  0.209559D-01  0.343371D-01  0.396675D-01
     29 -0.370211D-01 -0.834695D-01  0.810106D-02 -0.810649D-02 -0.667373D-01
     30 -0.849580D-02  0.321374D-01  0.189058D-01  0.116496D-01 -0.339309D-01
     31  0.404572D-01  0.271300D-01 -0.227556D-01  0.438150D-01  0.581439D-01
     32  0.327388D-01 -0.191672D-03  0.175244D-01 -0.127867D-01 -0.348559D-01
     33  0.113623D-01  0.485099D-02  0.716573D-01 -0.192269D-01 -0.315973D-02
     34 -0.579169D-01  0.462101D-02  0.831725D-02 -0.717678D-01  0.460041D-01
     35  0.106328D+00  0.177726D-01  0.326380D-01  0.661684D-01 -0.133724D-01
     36  0.130503D-01  0.554232D-01 -0.137213D-01  0.394335D-01  0.446829D-01
               21            22            23            24            25 
     21  0.228072D+01
     22 -0.798476D-01  0.654221D+00
     23  0.152632D+00 -0.785174D-01  0.191088D+01
     24 -0.225508D-01  0.469909D-01 -0.501144D+00  0.801781D+00
     25  0.114225D+00 -0.162947D-01 -0.134884D-01 -0.553174D-01  0.184296D+01
     26 -0.601930D-01  0.728397D-02  0.594729D-01 -0.357174D-01  0.752898D+00
     27  0.774221D-01 -0.194651D-01 -0.277734D-01 -0.271823D-01  0.333879D+00
     28  0.236399D-01 -0.425345D-01  0.109218D+00 -0.276567D-01  0.479354D-01
     29 -0.465116D-01  0.724649D-01 -0.244140D-01 -0.798426D-01 -0.169542D+00
     30  0.910450D-01 -0.199642D-01  0.524144D-01  0.633523D-02  0.700699D-02
     31  0.416921D-01 -0.845405D-02  0.111941D-01 -0.201433D-01  0.100221D-01
     32 -0.425282D-01 -0.276163D-01 -0.190186D-01  0.220256D-01  0.468861D-01
     33 -0.739458D-01 -0.159749D-01 -0.320141D-02 -0.388785D-01 -0.793992D-01
     34  0.491077D-01 -0.806654D-01 -0.317239D-01 -0.800336D-02  0.498834D-01
     35 -0.153532D-01  0.439498D-01  0.882841D-01 -0.850621D-01 -0.381534D-01
     36  0.442668D-03 -0.941953D-02 -0.168695D-01 -0.295179D-01  0.111234D+00
               26            27            28            29            30 
     26  0.135089D+01
     27  0.272085D+00  0.823981D+00
     28  0.779308D-01  0.800159D-02  0.704209D+00
     29 -0.117469D+00 -0.624605D-01 -0.968129D-01  0.196484D+01
     30  0.105339D+00  0.483137D-01  0.715321D-01 -0.555678D+00  0.830390D+00
     31 -0.365585D-01  0.103801D+00  0.113772D+00 -0.694172D-01  0.209820D-01
     32  0.112385D+00  0.676507D-01  0.212704D-01 -0.206713D-01 -0.789732D-01
     33 -0.166277D+00 -0.128493D+00 -0.502584D-01  0.259387D+00 -0.133159D+00
     34  0.877358D-02  0.241276D-02  0.270246D-01  0.437559D-01 -0.158904D-01
     35  0.218384D-01 -0.418643D-01 -0.924795D-02 -0.791705D-01  0.112406D-01
     36  0.108939D+00  0.376163D-01  0.178248D-01  0.458488D-02  0.181132D-01
               31            32            33            34            35 
     31  0.699238D+00
     32  0.118319D-01  0.806954D+00
     33 -0.926187D-01  0.133030D+00  0.223055D+01
     34 -0.528142D-01 -0.218596D-01  0.796347D-01  0.247002D+01
     35  0.432962D-01 -0.435831D-01 -0.133009D+00 -0.751254D+00  0.132287D+01
     36 -0.218072D-01 -0.418954D-01  0.754549D-03 -0.515350D+00  0.221212D+00
               36 
     36  0.102557D+01
 Final forces over variables, Energy=-1.92331595D+02:
 
 Leave Link  716 at Tue Mar  8 23:19:31 2022, MaxMem=   939524096 cpu:               0.1 elap:               0.2
 (Enter /rds/general/project/gaussian-development/live/home/gaussiangdvJ05_pgi_18/gdv/l9999.exe)

 This type of calculation cannot be archived.


 DON'T WORRY CHARLIE BROWN...WE LEARN MORE FROM LOSING 
 THAN WE DO FROM WINNING.
 THEN THAT MAKES ME THE SMARTEST PERSON IN THE WORLD...
 CHARLES SCHULZ 'PEANUTS'
 Job cpu time:       0 days  0 hours  2 minutes 41.8 seconds.
 Elapsed time:       0 days  0 hours  5 minutes  6.7 seconds.
 File lengths (MBytes):  RWF=    178 Int=      0 D2E=      0 Chk=     26 Scr=      2
 Normal termination of Gaussian DV at Tue Mar  8 23:19:32 2022.
