 Entering Gaussian System, Link 0=gdv
 Input=methanal_s1_ts.com
 Output=methanal_s1_ts.log
 Initial command:
 /Users/gdvg01/gaussiangdvJ05_pgi_18/gdv/l1.exe "/Users/gdvg01/work/Gau-14209.inp" -scrdir="/Users/gdvg01/work/"
 Entering Link 1 = /Users/gdvg01/gaussiangdvJ05_pgi_18/gdv/l1.exe PID=     14210.
  
 Copyright (c) 1988-2019, Gaussian, Inc.  All Rights Reserved.
  
 This is the private, development version of
 the Gaussian(R) DV system of programs. It is based on
 the Gaussian(R) 16 system (copyright 2016, Gaussian, Inc.),
 the Gaussian(R) 09 system (copyright 2009, Gaussian, Inc.),
 the Gaussian(R) 03 system (copyright 2003, Gaussian, Inc.),
 the Gaussian(R) 98 system (copyright 1998, Gaussian, Inc.),
 the Gaussian(R) 94 system (copyright 1995, Gaussian, Inc.),
 the Gaussian 92(TM) system (copyright 1992, Gaussian, Inc.),
 the Gaussian 90(TM) system (copyright 1990, Gaussian, Inc.),
 the Gaussian 88(TM) system (copyright 1988, Gaussian, Inc.),
 the Gaussian 86(TM) system (copyright 1986, Carnegie Mellon
 University), and the Gaussian 82(TM) system (copyright 1983,
 Carnegie Mellon University). Gaussian is a federally registered
 trademark of Gaussian, Inc.
  
 This software contains proprietary and confidential information,
 including trade secrets, belonging to Gaussian, Inc.
  
 This software is provided under written license and may be
 used, copied, transmitted, or stored only in accord with that
 written license.
  
 The following legend is applicable only to US Government
 contracts under FAR:
  
                    RESTRICTED RIGHTS LEGEND
  
 Use, reproduction and disclosure by the US Government is
 subject to restrictions as set forth in subparagraphs (a)
 and (c) of the Commercial Computer Software - Restricted
 Rights clause in FAR 52.227-19.
  
 Gaussian, Inc.
 340 Quinnipiac St., Bldg. 40, Wallingford CT 06492
  
  
 ---------------------------------------------------------------
 Warning -- This program may not be used in any manner that
 competes with the business of Gaussian, Inc. or will provide
 assistance to any competitor of Gaussian, Inc.  The licensee
 of this program is prohibited from giving any competitor of
 Gaussian, Inc. access to this program.  By using this program,
 the user acknowledges that Gaussian, Inc. is engaged in the
 business of creating and licensing software in the field of
 computational chemistry and represents and warrants to the
 licensee that it is not a competitor of Gaussian, Inc. and that
 it will not use this program in any manner prohibited above.
 ---------------------------------------------------------------
  

 Cite this work as:
 Gaussian Development Version, Revision J.05,
 M. J. Frisch, G. W. Trucks, H. B. Schlegel, G. E. Scuseria, 
 M. A. Robb, J. R. Cheeseman, G. Scalmani, V. Barone, 
 G. A. Petersson, H. Nakatsuji, X. Li, M. Caricato, A. V. Marenich, 
 J. Bloino, B. G. Janesko, R. Gomperts, B. Mennucci, H. P. Hratchian, 
 J. V. Ortiz, A. F. Izmaylov, J. L. Sonnenberg, D. Williams-Young, 
 F. Ding, F. Lipparini, F. Egidi, J. Goings, B. Peng, A. Petrone, 
 T. Henderson, D. Ranasinghe, V. G. Zakrzewski, J. Gao, N. Rega, 
 G. Zheng, W. Liang, M. Hada, M. Ehara, K. Toyota, R. Fukuda, 
 J. Hasegawa, M. Ishida, T. Nakajima, Y. Honda, O. Kitao, H. Nakai, 
 T. Vreven, K. Throssell, J. A. Montgomery, Jr., J. E. Peralta, 
 F. Ogliaro, M. J. Bearpark, J. J. Heyd, E. N. Brothers, K. N. Kudin, 
 V. N. Staroverov, T. A. Keith, R. Kobayashi, J. Normand, 
 K. Raghavachari, A. P. Rendell, J. C. Burant, S. S. Iyengar, 
 J. Tomasi, M. Cossi, J. M. Millam, M. Klene, C. Adamo, R. Cammi, 
 J. W. Ochterski, R. L. Martin, K. Morokuma, O. Farkas, 
 J. B. Foresman, and D. J. Fox, Gaussian, Inc., Wallingford CT, 2019.
 
 ******************************************
 Gaussian DV:  EM64M-GDVRevJ.05 25-Dec-2019
                 7-Dec-2021 
 ******************************************
 %chk = nbosF
 ----------------------------
 #P B3LYP/6-31g* pop=savenbos
 ----------------------------
 1/38=1,172=1/1;
 2/12=2,17=6,18=5,40=1/2;
 3/5=1,6=6,7=1,11=2,25=1,30=1,74=-5/1,2,3;
 4//1;
 5/5=2,38=5/2;
 6/7=2,8=2,9=2,10=2,28=1,40=1,73=1/1,7;
 99/5=1,9=1/99;
 Leave Link    1 at Tue Dec  7 14:19:58 2021, MaxMem=           0 cpu:               0.0 elap:               0.0
 (Enter /Users/gdvg01/gaussiangdvJ05_pgi_18/gdv/l101.exe)
 ----
 NBOs
 ----
 Symbolic Z-matrix:
 Charge =  0 Multiplicity = 1
 C                     0.00007   0.5907    0. 
 H                     0.94864   1.09062   0. 
 H                    -0.94833   1.09093   0. 
 O                    -0.00014  -0.71545   0. 
 
 ITRead=  0  0  0  0
 MicOpt= -1 -1 -1 -1
 NAtoms=      4 NQM=        4 NQMF=       0 NMMI=      0 NMMIF=      0
                NMic=       0 NMicF=      0.
                    Isotopes and Nuclear Properties:
 (Nuclear quadrupole moments (NQMom) in fm**2, nuclear magnetic moments (NMagM)
  in nuclear magnetons)

  Atom         1           2           3           4
 IAtWgt=          12           1           1          16
 AtmWgt=  12.0000000   1.0078250   1.0078250  15.9949146
 NucSpn=           0           1           1           0
 AtZEff=  -0.0000000  -0.0000000  -0.0000000  -0.0000000
 NQMom=    0.0000000   0.0000000   0.0000000   0.0000000
 NMagM=    0.0000000   2.7928460   2.7928460   0.0000000
 AtZNuc=   6.0000000   1.0000000   1.0000000   8.0000000
 Leave Link  101 at Tue Dec  7 14:19:58 2021, MaxMem=   104857600 cpu:               0.1 elap:               0.2
 (Enter /Users/gdvg01/gaussiangdvJ05_pgi_18/gdv/l202.exe)
                          Input orientation:                          
 ---------------------------------------------------------------------
 Center     Atomic      Atomic             Coordinates (Angstroms)
 Number     Number       Type             X           Y           Z
 ---------------------------------------------------------------------
      1          6           0        0.000071    0.590702    0.000000
      2          1           0        0.948638    1.090616    0.000000
      3          1           0       -0.948331    1.090928    0.000000
      4          8           0       -0.000143   -0.715445    0.000000
 ---------------------------------------------------------------------
                    Distance matrix (angstroms):
                    1          2          3          4
     1  C    0.000000
     2  H    1.072238   0.000000
     3  H    1.072237   1.896969   0.000000
     4  O    1.306147   2.040108   2.040109   0.000000
 Stoichiometry    CH2O
 Framework group  CS[SG(CH2O)]
 Deg. of freedom     5
 Full point group                 CS      NOp   2
 Largest Abelian subgroup         CS      NOp   2
 Largest concise Abelian subgroup C1      NOp   1
                         Standard orientation:                         
 ---------------------------------------------------------------------
 Center     Atomic      Atomic             Coordinates (Angstroms)
 Number     Number       Type             X           Y           Z
 ---------------------------------------------------------------------
      1          6           0        0.000000   -0.590565    0.000000
      2          1           0       -0.948485   -1.090634    0.000000
      3          1           0        0.948484   -1.090635    0.000000
      4          8           0        0.000000    0.715582    0.000000
 ---------------------------------------------------------------------
 Rotational constants (GHZ):         278.7029546          34.5734129          30.7578654
 Leave Link  202 at Tue Dec  7 14:19:58 2021, MaxMem=   104857600 cpu:               0.0 elap:               0.0
 (Enter /Users/gdvg01/gaussiangdvJ05_pgi_18/gdv/l301.exe)
 Standard basis: 6-31G(d) (6D, 7F)
 Ernie: Thresh=  0.10000D-02 Tol=  0.10000D-05 Strict=F.
 There are    26 symmetry adapted cartesian basis functions of A'  symmetry.
 There are     8 symmetry adapted cartesian basis functions of A"  symmetry.
 There are    26 symmetry adapted basis functions of A'  symmetry.
 There are     8 symmetry adapted basis functions of A"  symmetry.
    34 basis functions,    64 primitive gaussians,    34 cartesian basis functions
     8 alpha electrons        8 beta electrons
       nuclear repulsion energy        29.7983591141 Hartrees.
 IExCor=  402 DFT=T Ex+Corr=B3LYP ScaHFX=  0.200000
 ScaDFX=  0.800000  0.720000  1.000000  0.810000  0.000000  0.000000
 ScaDFX=  0.000000  0.000000  0.000000  0.000000  0.000000  0.000000
 IRadAn=      5 IRanWt=     -1 IRanGd=            0 ICorTp=0 IEmpDi=  4
 NAtoms=    4 NActive=    4 NUniq=    4 SFac= 1.00D+00 NAtFMM=   60 NAOKFM=F Big=F
 Integral buffers will be    131072 words long.
 Raffenetti 2 integral format.
 Two-electron integral symmetry is turned on.
 Leave Link  301 at Tue Dec  7 14:19:58 2021, MaxMem=   104857600 cpu:               0.0 elap:               0.0
 (Enter /Users/gdvg01/gaussiangdvJ05_pgi_18/gdv/l302.exe)
 NPDir=0 NMtPBC=     1 NCelOv=     1 NCel=       1 NClECP=     1 NCelD=      1
         NCelK=      1 NCelE2=     1 NClLst=     1 CellRange=     0.0.
 One-electron integrals computed using PRISM.
 One-electron integral symmetry used in STVInt
 NBasis=    34 RedAO= T EigKep=  1.09D-02  NBF=    26     8
 NBsUse=    34 1.00D-06 EigRej= -1.00D+00 NBFU=    26     8
 Precomputing XC quadrature grid using
 IXCGrd= 4 IRadAn=           5 IRanWt=          -1 IRanGd=           0 AccXCQ= 0.00D+00.
 Generated NRdTot=       0 NPtTot=       89982 NUsed=           0 NTot=          64
 NSgBfM=    34    34    34    34    34 MxSgAt=     4 MxSgA2=     4 SizInc=   0.000
 NMBTot=      819 MaxBatPerAtom=       82 MaxMicBPerAtom=      209.
 Leave Link  302 at Tue Dec  7 14:19:59 2021, MaxMem=   104857600 cpu:               0.1 elap:               0.1
 (Enter /Users/gdvg01/gaussiangdvJ05_pgi_18/gdv/l303.exe)
 DipDrv:  MaxL=1.
 Leave Link  303 at Tue Dec  7 14:19:59 2021, MaxMem=   104857600 cpu:               0.0 elap:               0.0
 (Enter /Users/gdvg01/gaussiangdvJ05_pgi_18/gdv/l401.exe)
 ExpMin= 1.61D-01 ExpMax= 5.48D+03 ExpMxC= 8.25D+02 IAcc=3 IRadAn=         5 AccDes= 0.00D+00
 Harris functional with IExCor=  402 and IRadAn=       5 diagonalized for initial guess.
 HarFok:  IExCor=  402 AccDes= 0.00D+00 IRadAn=         5 IDoV= 1 UseB2=F ITyADJ=14 ICtDFT=  3500011
 FoFCou: FMM=F IPFlag=           0 FMFlag=      100000 FMFlg1=           0
         NFxFlg=           0 DoJE=T BraDBF=F KetDBF=T FulRan=T
         wScrn=  0.000000 ICntrl=       500 IOpCl=  0 I1Cent=   200000004 NGrid=           0
         NMat0=    1 NMatS0=      1 NMatT0=    0 NMatD0=    1 NMtDS0=    0 NMtDT0=    0
 Petite list used in FoFCou.
 Harris En= -114.496679986941    
 JPrj=0 DoOrth=F DoCkMO=F.
 Initial guess orbital symmetries:
       Occupied  (A') (A') (A') (A') (A') (A') (A") (A')
       Virtual   (A") (A') (A') (A') (A") (A') (A') (A') (A') (A')
                 (A') (A") (A') (A') (A") (A") (A') (A') (A") (A')
                 (A') (A") (A') (A') (A') (A')
 The electronic state of the initial guess is 1-A'.
 Leave Link  401 at Tue Dec  7 14:19:59 2021, MaxMem=   104857600 cpu:               0.2 elap:               0.2
 (Enter /Users/gdvg01/gaussiangdvJ05_pgi_18/gdv/l502.exe)
 Keep R1 ints in memory in symmetry-blocked form, NReq=1044691.
 FoFCou: FMM=F IPFlag=           0 FMFlag=           0 FMFlg1=           0
         NFxFlg=           0 DoJE=F BraDBF=F KetDBF=F FulRan=T
         wScrn=  0.000000 ICntrl=       600 IOpCl=  0 I1Cent=           0 NGrid=           0
         NMat0=    1 NMatS0=    595 NMatT0=    0 NMatD0=    1 NMtDS0=    0 NMtDT0=    0
 Petite list used in FoFCou.
 Closed shell SCF:
 Using DIIS extrapolation, IDIIS=  1040.
 NGot=   104857600 LenX=   104755912 LenY=   104754315
 Requested convergence on RMS density matrix=1.00D-08 within 128 cycles.
 Requested convergence on MAX density matrix=1.00D-06.
 Requested convergence on             energy=1.00D-06.
 No special actions if energy rises.
 Integral accuracy reduced to 1.0D-05 until final iterations.

 Cycle   1  Pass 0  IDiag  1:
 E= -114.434280916120    
 DIIS: error= 4.98D-02 at cycle   1 NSaved=   1.
 NSaved= 1 IEnMin= 1 EnMin= -114.434280916120     IErMin= 1 ErrMin= 4.98D-02
 ErrMax= 4.98D-02  0.00D+00 EMaxC= 1.00D-01 BMatC= 6.03D-02 BMatP= 6.03D-02
 IDIUse=3 WtCom= 5.02D-01 WtEn= 4.98D-01
 Coeff-Com:  0.100D+01
 Coeff-En:   0.100D+01
 Coeff:      0.100D+01
 Gap=     0.116 Goal=   None    Shift=    0.000
 GapD=    0.116 DampG=1.000 DampE=0.500 DampFc=0.5000 IDamp=-1.
 Damping current iteration by 5.00D-01
 RMSDP=2.03D-02 MaxDP=2.03D-01              OVMax= 3.48D-01

 Cycle   2  Pass 0  IDiag  1:
 E= -114.419618471655     Delta-E=        0.014662444465 Rises=F Damp=T
 DIIS: error= 3.84D-02 at cycle   2 NSaved=   2.
 NSaved= 2 IEnMin= 1 EnMin= -114.434280916120     IErMin= 2 ErrMin= 3.84D-02
 ErrMax= 3.84D-02  0.00D+00 EMaxC= 1.00D-01 BMatC= 3.28D-02 BMatP= 6.03D-02
 IDIUse=3 WtCom= 6.16D-01 WtEn= 3.84D-01
 Coeff-Com:  0.413D+00 0.587D+00
 Coeff-En:   0.579D+00 0.421D+00
 Coeff:      0.477D+00 0.523D+00
 Gap=     0.183 Goal=   None    Shift=    0.000
 RMSDP=4.29D-03 MaxDP=3.87D-02 DE= 1.47D-02 OVMax= 2.43D-01

 Cycle   3  Pass 0  IDiag  1:
 E= -114.483570719836     Delta-E=       -0.063952248181 Rises=F Damp=F
 DIIS: error= 8.26D-03 at cycle   3 NSaved=   3.
 NSaved= 3 IEnMin= 3 EnMin= -114.483570719836     IErMin= 3 ErrMin= 8.26D-03
 ErrMax= 8.26D-03  0.00D+00 EMaxC= 1.00D-01 BMatC= 2.80D-03 BMatP= 3.28D-02
 IDIUse=3 WtCom= 9.17D-01 WtEn= 8.26D-02
 Coeff-Com:  0.188D+00 0.144D+00 0.668D+00
 Coeff-En:   0.000D+00 0.000D+00 0.100D+01
 Coeff:      0.173D+00 0.132D+00 0.696D+00
 Gap=     0.199 Goal=   None    Shift=    0.000
 RMSDP=1.85D-03 MaxDP=1.66D-02 DE=-6.40D-02 OVMax= 1.64D-02

 Cycle   4  Pass 0  IDiag  1:
 E= -114.485906895576     Delta-E=       -0.002336175740 Rises=F Damp=F
 DIIS: error= 2.99D-03 at cycle   4 NSaved=   4.
 NSaved= 4 IEnMin= 4 EnMin= -114.485906895576     IErMin= 4 ErrMin= 2.99D-03
 ErrMax= 2.99D-03  0.00D+00 EMaxC= 1.00D-01 BMatC= 1.92D-04 BMatP= 2.80D-03
 IDIUse=3 WtCom= 9.70D-01 WtEn= 2.99D-02
 Coeff-Com:  0.281D-01-0.200D-01 0.236D+00 0.756D+00
 Coeff-En:   0.000D+00 0.000D+00 0.000D+00 0.100D+01
 Coeff:      0.273D-01-0.194D-01 0.229D+00 0.763D+00
 Gap=     0.201 Goal=   None    Shift=    0.000
 RMSDP=3.43D-04 MaxDP=4.19D-03 DE=-2.34D-03 OVMax= 4.28D-03

 Cycle   5  Pass 0  IDiag  1:
 E= -114.486086496262     Delta-E=       -0.000179600686 Rises=F Damp=F
 DIIS: error= 3.38D-04 at cycle   5 NSaved=   5.
 NSaved= 5 IEnMin= 5 EnMin= -114.486086496262     IErMin= 5 ErrMin= 3.38D-04
 ErrMax= 3.38D-04  0.00D+00 EMaxC= 1.00D-01 BMatC= 4.35D-06 BMatP= 1.92D-04
 IDIUse=3 WtCom= 9.97D-01 WtEn= 3.38D-03
 Coeff-Com:  0.625D-02-0.117D-01 0.462D-01 0.190D+00 0.770D+00
 Coeff-En:   0.000D+00 0.000D+00 0.000D+00 0.000D+00 0.100D+01
 Coeff:      0.623D-02-0.117D-01 0.460D-01 0.189D+00 0.770D+00
 Gap=     0.202 Goal=   None    Shift=    0.000
 RMSDP=5.60D-05 MaxDP=3.72D-04 DE=-1.80D-04 OVMax= 5.79D-04

 Cycle   6  Pass 0  IDiag  1:
 E= -114.486090121045     Delta-E=       -0.000003624783 Rises=F Damp=F
 DIIS: error= 9.26D-05 at cycle   6 NSaved=   6.
 NSaved= 6 IEnMin= 6 EnMin= -114.486090121045     IErMin= 6 ErrMin= 9.26D-05
 ErrMax= 9.26D-05  0.00D+00 EMaxC= 1.00D-01 BMatC= 1.68D-07 BMatP= 4.35D-06
 IDIUse=1 WtCom= 1.00D+00 WtEn= 0.00D+00
 Coeff-Com:  0.605D-03-0.134D-02 0.211D-03-0.537D-02-0.133D-01 0.102D+01
 Coeff:      0.605D-03-0.134D-02 0.211D-03-0.537D-02-0.133D-01 0.102D+01
 Gap=     0.202 Goal=   None    Shift=    0.000
 RMSDP=1.12D-05 MaxDP=8.64D-05 DE=-3.62D-06 OVMax= 1.40D-04

 Cycle   7  Pass 0  IDiag  1:
 E= -114.486090261450     Delta-E=       -0.000000140405 Rises=F Damp=F
 DIIS: error= 4.76D-06 at cycle   7 NSaved=   7.
 NSaved= 7 IEnMin= 7 EnMin= -114.486090261450     IErMin= 7 ErrMin= 4.76D-06
 ErrMax= 4.76D-06  0.00D+00 EMaxC= 1.00D-01 BMatC= 7.34D-10 BMatP= 1.68D-07
 IDIUse=1 WtCom= 1.00D+00 WtEn= 0.00D+00
 Coeff-Com:  0.276D-04-0.379D-04-0.186D-03-0.194D-02-0.105D-01 0.515D-01
 Coeff-Com:  0.961D+00
 Coeff:      0.276D-04-0.379D-04-0.186D-03-0.194D-02-0.105D-01 0.515D-01
 Coeff:      0.961D+00
 Gap=     0.202 Goal=   None    Shift=    0.000
 RMSDP=4.88D-07 MaxDP=5.36D-06 DE=-1.40D-07 OVMax= 6.24D-06

 Initial convergence to 1.0D-05 achieved.  Increase integral accuracy.
 Cycle   8  Pass 1  IDiag  1:
 E= -114.486090494538     Delta-E=       -0.000000233088 Rises=F Damp=F
 DIIS: error= 1.61D-06 at cycle   1 NSaved=   1.
 NSaved= 1 IEnMin= 1 EnMin= -114.486090494538     IErMin= 1 ErrMin= 1.61D-06
 ErrMax= 1.61D-06  0.00D+00 EMaxC= 1.00D-01 BMatC= 4.93D-11 BMatP= 4.93D-11
 IDIUse=1 WtCom= 1.00D+00 WtEn= 0.00D+00
 Coeff-Com:  0.100D+01
 Coeff:      0.100D+01
 Gap=     0.202 Goal=   None    Shift=    0.000
 RMSDP=4.88D-07 MaxDP=5.36D-06 DE=-2.33D-07 OVMax= 1.12D-05

 Cycle   9  Pass 1  IDiag  1:
 E= -114.486090494348     Delta-E=        0.000000000190 Rises=F Damp=F
 DIIS: error= 4.08D-06 at cycle   2 NSaved=   2.
 NSaved= 2 IEnMin= 1 EnMin= -114.486090494538     IErMin= 1 ErrMin= 1.61D-06
 ErrMax= 4.08D-06  0.00D+00 EMaxC= 1.00D-01 BMatC= 2.99D-10 BMatP= 4.93D-11
 IDIUse=1 WtCom= 1.00D+00 WtEn= 0.00D+00
 Coeff-Com:  0.722D+00 0.278D+00
 Coeff:      0.722D+00 0.278D+00
 Gap=     0.202 Goal=   None    Shift=    0.000
 RMSDP=3.39D-07 MaxDP=4.38D-06 DE= 1.90D-10 OVMax= 7.82D-06

 Cycle  10  Pass 1  IDiag  1:
 E= -114.486090494587     Delta-E=       -0.000000000239 Rises=F Damp=F
 DIIS: error= 5.73D-08 at cycle   3 NSaved=   3.
 NSaved= 3 IEnMin= 3 EnMin= -114.486090494587     IErMin= 3 ErrMin= 5.73D-08
 ErrMax= 5.73D-08  0.00D+00 EMaxC= 1.00D-01 BMatC= 1.07D-13 BMatP= 4.93D-11
 IDIUse=1 WtCom= 1.00D+00 WtEn= 0.00D+00
 Coeff-Com: -0.487D-02 0.611D-02 0.999D+00
 Coeff:     -0.487D-02 0.611D-02 0.999D+00
 Gap=     0.202 Goal=   None    Shift=    0.000
 RMSDP=2.35D-08 MaxDP=1.98D-07 DE=-2.39D-10 OVMax= 1.65D-07

 Cycle  11  Pass 1  IDiag  1:
 E= -114.486090494587     Delta-E=        0.000000000000 Rises=F Damp=F
 DIIS: error= 4.62D-08 at cycle   4 NSaved=   4.
 NSaved= 4 IEnMin= 3 EnMin= -114.486090494587     IErMin= 4 ErrMin= 4.62D-08
 ErrMax= 4.62D-08  0.00D+00 EMaxC= 1.00D-01 BMatC= 4.82D-14 BMatP= 1.07D-13
 IDIUse=1 WtCom= 1.00D+00 WtEn= 0.00D+00
 Coeff-Com: -0.101D-01 0.306D-03 0.421D+00 0.589D+00
 Coeff:     -0.101D-01 0.306D-03 0.421D+00 0.589D+00
 Gap=     0.202 Goal=   None    Shift=    0.000
 RMSDP=6.48D-09 MaxDP=7.46D-08 DE= 1.42D-13 OVMax= 7.22D-08

 SCF Done:  E(RB3LYP) =  -114.486090495     A.U. after   11 cycles
            NFock= 11  Conv=0.65D-08     -V/T= 2.0105
 KE= 1.132927656001D+02 PE=-3.279764588028D+02 EE= 7.039924359410D+01
 Leave Link  502 at Tue Dec  7 14:20:00 2021, MaxMem=   104857600 cpu:               0.9 elap:               1.0
 (Enter /Users/gdvg01/gaussiangdvJ05_pgi_18/gdv/l601.exe)
 Copying SCF densities to generalized density rwf, IOpCl= 0 IROHF=0.

 **********************************************************************

            Population analysis using the SCF Density.

 **********************************************************************

 Orbital symmetries:
       Occupied  (A') (A') (A') (A') (A') (A') (A") (A')
       Virtual   (A") (A') (A') (A') (A") (A') (A') (A') (A') (A')
                 (A') (A") (A') (A') (A") (A") (A') (A') (A") (A')
                 (A') (A") (A') (A') (A') (A')
 The electronic state is 1-A'.
 Alpha  occ. eigenvalues --  -19.16698 -10.29111  -1.00681  -0.65322  -0.50237
 Alpha  occ. eigenvalues --   -0.42795  -0.36664  -0.26724
 Alpha virt. eigenvalues --   -0.06552   0.10437   0.17870   0.19966   0.51515
 Alpha virt. eigenvalues --    0.55357   0.62212   0.64617   0.84988   0.86510
 Alpha virt. eigenvalues --    0.90525   0.96027   1.06272   1.34820   1.47455
 Alpha virt. eigenvalues --    1.53116   1.73927   1.84069   1.89893   2.07289
 Alpha virt. eigenvalues --    2.21870   2.44304   2.52991   2.82079   3.62163
 Alpha virt. eigenvalues --    4.06721
          Condensed to atoms (all electrons):
               1          2          3          4
     1  C    4.786468   0.335929   0.335929   0.484552
     2  H    0.335929   0.635737  -0.075426  -0.051176
     3  H    0.335929  -0.075426   0.635737  -0.051176
     4  O    0.484552  -0.051176  -0.051176   7.984793
 Mulliken charges:
               1
     1  C    0.057122
     2  H    0.154936
     3  H    0.154936
     4  O   -0.366993
 Sum of Mulliken charges =  -0.00000
 Mulliken charges with hydrogens summed into heavy atoms:
               1
     1  C    0.366993
     4  O   -0.366993
 Electronic spatial extent (au):  <R**2>=             62.6628
 Charge=             -0.0000 electrons
 Dipole moment (field-independent basis, Debye):
    X=              0.0000    Y=             -2.5744    Z=              0.0000  Tot=              2.5744
 Quadrupole moment (field-independent basis, Debye-Ang):
   XX=            -11.1537   YY=            -11.7667   ZZ=            -11.5670
   XY=             -0.0000   XZ=              0.0000   YZ=              0.0000
 Traceless Quadrupole moment (field-independent basis, Debye-Ang):
   XX=              0.3421   YY=             -0.2709   ZZ=             -0.0712
   XY=             -0.0000   XZ=              0.0000   YZ=              0.0000
 Octapole moment (field-independent basis, Debye-Ang**2):
  XXX=             -0.0000  YYY=              0.7367  ZZZ=              0.0000  XYY=              0.0000
  XXY=             -0.6015  XXZ=              0.0000  XZZ=              0.0000  YZZ=              0.8196
  YYZ=              0.0000  XYZ=              0.0000
 Hexadecapole moment (field-independent basis, Debye-Ang**3):
 XXXX=            -16.6363 YYYY=            -46.6793 ZZZZ=             -9.5119 XXXY=             -0.0000
 XXXZ=              0.0000 YYYX=             -0.0000 YYYZ=              0.0000 ZZZX=              0.0000
 ZZZY=              0.0000 XXYY=            -10.0341 XXZZ=             -4.6480 YYZZ=             -9.3166
 XXYZ=              0.0000 YYXZ=              0.0000 ZZXY=             -0.0000
 N-N= 2.979835911405D+01 E-N=-3.279764605433D+02  KE= 1.132927656001D+02
 Symmetry A'   KE= 1.097423851907D+02
 Symmetry A"   KE= 3.550380409409D+00
 No NMR shielding tensors so no spin-rotation constants.
 Leave Link  601 at Tue Dec  7 14:20:00 2021, MaxMem=   104857600 cpu:               0.1 elap:               0.1
 (Enter /Users/gdvg01/gaussiangdvJ05_pgi_18/gdv/l607.exe)
 ******************************Gaussian NBO Version 3.1******************************
             N A T U R A L   A T O M I C   O R B I T A L   A N D
          N A T U R A L   B O N D   O R B I T A L   A N A L Y S I S
 ******************************Gaussian NBO Version 3.1******************************
       /RESON  / : Allow strongly delocalized NBO set

 Analyzing the SCF density

 Job title: NBOs                                                            

 Storage needed:      3688 in NPA,      4757 in NBO ( 104857488 available)
 GSVD:  LWork=         772 too small for GESVD, short by         176 words or         176 for optimal perf.
 GSVD:  LWork=         772 too small for GESVD, short by         176 words or         176 for optimal perf.


 NATURAL POPULATIONS:  Natural atomic orbital occupancies 
                                                          
   NAO  Atom  No  lang   Type(AO)    Occupancy      Energy
 ----------------------------------------------------------
     1    C    1  S      Cor( 1S)     1.99968     -10.19076
     2    C    1  S      Val( 2S)     1.09092      -0.30705
     3    C    1  S      Ryd( 3S)     0.00413       0.89615
     4    C    1  S      Ryd( 4S)     0.00006       3.82726
     5    C    1  px     Val( 2p)     1.16412      -0.06080
     6    C    1  px     Ryd( 3p)     0.00026       0.68698
     7    C    1  py     Val( 2p)     0.82128      -0.05131
     8    C    1  py     Ryd( 3p)     0.00884       0.49579
     9    C    1  pz     Val( 2p)     0.72143      -0.15812
    10    C    1  pz     Ryd( 3p)     0.00276       0.50615
    11    C    1  dxy    Ryd( 3d)     0.00391       2.16978
    12    C    1  dxz    Ryd( 3d)     0.00000       1.61526
    13    C    1  dyz    Ryd( 3d)     0.00152       1.89342
    14    C    1  dx2y2  Ryd( 3d)     0.00162       2.18025
    15    C    1  dz2    Ryd( 3d)     0.00059       2.05112

    16    H    2  S      Val( 1S)     0.83518       0.03190
    17    H    2  S      Ryd( 2S)     0.00279       0.56839

    18    H    3  S      Val( 1S)     0.83518       0.03190
    19    H    3  S      Ryd( 2S)     0.00279       0.56839

    20    O    4  S      Cor( 1S)     1.99988     -18.95641
    21    O    4  S      Val( 2S)     1.77345      -0.91966
    22    O    4  S      Ryd( 3S)     0.00231       1.27662
    23    O    4  S      Ryd( 4S)     0.00000       3.48513
    24    O    4  px     Val( 2p)     1.93026      -0.27237
    25    O    4  px     Ryd( 3p)     0.00320       1.05465
    26    O    4  py     Val( 2p)     1.51654      -0.28609
    27    O    4  py     Ryd( 3p)     0.00027       1.04343
    28    O    4  pz     Val( 2p)     1.27202      -0.25012
    29    O    4  pz     Ryd( 3p)     0.00007       0.95662
    30    O    4  dxy    Ryd( 3d)     0.00161       2.09102
    31    O    4  dxz    Ryd( 3d)     0.00000       1.81484
    32    O    4  dyz    Ryd( 3d)     0.00220       2.01290
    33    O    4  dx2y2  Ryd( 3d)     0.00087       2.47689
    34    O    4  dz2    Ryd( 3d)     0.00025       2.03996


 Summary of Natural Population Analysis:                  
                                                          
                                       Natural Population 
                Natural  -----------------------------------------------
    Atom  No    Charge         Core      Valence    Rydberg      Total
 -----------------------------------------------------------------------
      C    1    0.17887      1.99968     3.79775    0.02369     5.82113
      H    2    0.16203      0.00000     0.83518    0.00279     0.83797
      H    3    0.16203      0.00000     0.83518    0.00279     0.83797
      O    4   -0.50293      1.99988     6.49226    0.01079     8.50293
 =======================================================================
   * Total *   -0.00000      3.99957    11.96038    0.04006    16.00000

                                 Natural Population      
 --------------------------------------------------------
   Core                       3.99957 ( 99.9892% of   4)
   Valence                   11.96038 ( 99.6698% of  12)
   Natural Minimal Basis     15.95994 ( 99.7497% of  16)
   Natural Rydberg Basis      0.04006 (  0.2503% of  16)
 --------------------------------------------------------

    Atom  No          Natural Electron Configuration
 ----------------------------------------------------------------------------
      C    1      [core]2S( 1.09)2p( 2.71)3p( 0.01)3d( 0.01)
      H    2            1S( 0.84)
      H    3            1S( 0.84)
      O    4      [core]2S( 1.77)2p( 4.72)


 NATURAL BOND ORBITAL ANALYSIS:

                       Occupancies       Lewis Structure    Low   High
           Occ.    -------------------  -----------------   occ   occ
  Cycle   Thresh.   Lewis   Non-Lewis     CR  BD  3C  LP    (L)   (NL)   Dev
 =============================================================================
   1(1)    1.90    15.91797   0.08203      2   4   0   2     0      0    0.04
 -----------------------------------------------------------------------------

 Structure accepted: No low occupancy Lewis orbitals

 --------------------------------------------------------
   Core                      3.99957 ( 99.989% of   4)
   Valence Lewis            11.91840 ( 99.320% of  12)
  ==================       ============================
   Total Lewis              15.91797 ( 99.487% of  16)
  -----------------------------------------------------
   Valence non-Lewis         0.06461 (  0.404% of  16)
   Rydberg non-Lewis         0.01742 (  0.109% of  16)
  ==================       ============================
   Total non-Lewis           0.08203 (  0.513% of  16)
 --------------------------------------------------------


       (Occupancy)   Bond orbital/ Coefficients/ Hybrids
 ---------------------------------------------------------------------------------
     1. (1.99726) BD ( 1) C   1 - H   2  
                ( 59.14%)   0.7690* C   1 s( 35.38%)p 1.82( 64.53%)d 0.00(  0.09%)
                                            0.0000  0.5946  0.0160  0.0011 -0.7067
                                            0.0024 -0.3819 -0.0038  0.0000  0.0000
                                            0.0236  0.0000  0.0000  0.0147 -0.0109
                ( 40.86%)   0.6392* H   2 s(100.00%)
                                            1.0000  0.0088
     2. (1.99726) BD ( 1) C   1 - H   3  
                ( 59.14%)   0.7690* C   1 s( 35.38%)p 1.82( 64.53%)d 0.00(  0.09%)
                                            0.0000  0.5946  0.0160  0.0011  0.7067
                                           -0.0024 -0.3819 -0.0038  0.0000  0.0000
                                           -0.0236  0.0000  0.0000  0.0147 -0.0109
                ( 40.86%)   0.6392* H   3 s(100.00%)
                                            1.0000  0.0088
     3. (2.00000) BD ( 1) C   1 - O   4  
                ( 36.29%)   0.6024* C   1 s(  0.00%)p 1.00( 99.79%)d 0.00(  0.21%)
                                            0.0000  0.0000  0.0000  0.0000  0.0000
                                            0.0000  0.0000  0.0000  0.9970 -0.0617
                                            0.0000  0.0000  0.0457  0.0000  0.0000
                ( 63.71%)   0.7982* O   4 s(  0.00%)p 1.00( 99.83%)d 0.00(  0.17%)
                                            0.0000  0.0000  0.0000  0.0000  0.0000
                                            0.0000  0.0000  0.0000  0.9991  0.0072
                                            0.0000  0.0000 -0.0416  0.0000  0.0000
     4. (1.99959) BD ( 2) C   1 - O   4  
                ( 34.93%)   0.5910* C   1 s( 29.37%)p 2.40( 70.43%)d 0.01(  0.20%)
                                            0.0001  0.5389 -0.0575 -0.0046  0.0000
                                            0.0000  0.8348  0.0859  0.0000  0.0000
                                            0.0000  0.0000  0.0000 -0.0400 -0.0200
                ( 65.07%)   0.8067* O   4 s( 31.76%)p 2.15( 68.17%)d 0.00(  0.08%)
                                           -0.0000  0.5623 -0.0366 -0.0001  0.0000
                                            0.0000 -0.8256 -0.0108  0.0000  0.0000
                                           -0.0000  0.0000  0.0000 -0.0251 -0.0112
     5. (1.99968) CR ( 1) C   1           s(100.00%)
                                            1.0000 -0.0001  0.0000  0.0000  0.0000
                                           -0.0000 -0.0001 -0.0000  0.0000  0.0000
                                           -0.0000  0.0000  0.0000  0.0000  0.0000
     6. (1.99988) CR ( 1) O   4           s(100.00%)p 0.00(  0.00%)
                                            1.0000  0.0002  0.0000  0.0000 -0.0000
                                            0.0000  0.0001  0.0000  0.0000  0.0000
                                            0.0000  0.0000  0.0000  0.0000  0.0000
     7. (1.99220) LP ( 1) O   4           s( 68.39%)p 0.46( 31.61%)d 0.00(  0.01%)
                                           -0.0002  0.8268  0.0163  0.0000  0.0000
                                           -0.0000  0.5622  0.0008  0.0000  0.0000
                                           -0.0000  0.0000  0.0000  0.0049  0.0066
     8. (1.93208) LP ( 2) O   4           s(  0.00%)p 1.00( 99.92%)d 0.00(  0.08%)
                                            0.0000 -0.0000  0.0000  0.0000  0.9995
                                           -0.0113  0.0000  0.0000  0.0000  0.0000
                                           -0.0286  0.0000  0.0000  0.0000 -0.0000
     9. (0.00510) RY*( 1) C   1           s( 26.51%)p 2.77( 73.37%)d 0.00(  0.13%)
                                           -0.0000  0.0417  0.5057 -0.0873  0.0000
                                            0.0000  0.0933 -0.8514 -0.0000 -0.0000
                                           -0.0000 -0.0000 -0.0000 -0.0344 -0.0088
    10. (0.00345) RY*( 2) C   1           s(  0.00%)p 1.00(  6.66%)d14.02( 93.34%)
                                           -0.0000  0.0000  0.0000  0.0000  0.0313
                                           -0.2561  0.0000  0.0000  0.0000  0.0000
                                            0.9661  0.0000  0.0000  0.0000 -0.0000
    11. (0.00000) RY*( 3) C   1           s(  0.00%)p 1.00( 93.45%)d 0.07(  6.55%)
    12. (0.00001) RY*( 4) C   1           s( 73.84%)p 0.35( 26.16%)d 0.00(  0.00%)
    13. (0.00000) RY*( 5) C   1           s(  0.00%)p 1.00(100.00%)d 0.00(  0.00%)
    14. (0.00000) RY*( 6) C   1           s( 99.43%)p 0.01(  0.57%)d 0.00(  0.00%)
    15. (0.00000) RY*( 7) C   1           s(  0.00%)p 0.00(  0.00%)d 1.00(100.00%)
    16. (0.00000) RY*( 8) C   1           s(  0.00%)p 1.00(  0.21%)d99.99( 99.79%)
    17. (0.00001) RY*( 9) C   1           s(  0.03%)p11.06(  0.29%)d99.99( 99.68%)
    18. (0.00001) RY*(10) C   1           s(  0.06%)p 0.20(  0.01%)d99.99( 99.93%)
    19. (0.00285) RY*( 1) H   2           s(100.00%)
                                           -0.0088  1.0000
    20. (0.00285) RY*( 1) H   3           s(100.00%)
                                           -0.0088  1.0000
    21. (0.00298) RY*( 1) O   4           s(  0.00%)p 1.00( 98.84%)d 0.01(  1.16%)
                                            0.0000 -0.0000  0.0000 -0.0000  0.0082
                                            0.9942 -0.0000  0.0000  0.0000  0.0000
                                           -0.1075  0.0000  0.0000 -0.0000  0.0000
    22. (0.00015) RY*( 2) O   4           s( 23.90%)p 3.13( 74.86%)d 0.05(  1.23%)
                                           -0.0000  0.0091  0.4810 -0.0872  0.0000
                                           -0.0000 -0.0290  0.8648  0.0000  0.0000
                                            0.0000  0.0000  0.0000  0.1033 -0.0406
    23. (0.00000) RY*( 3) O   4           s( 76.23%)p 0.31( 23.77%)d 0.00(  0.00%)
    24. (0.00000) RY*( 4) O   4           s( 99.42%)p 0.01(  0.57%)d 0.00(  0.01%)
    25. (0.00000) RY*( 5) O   4           s(  0.00%)p 1.00(100.00%)d 0.00(  0.00%)
    26. (0.00000) RY*( 6) O   4           s(  0.00%)p 1.00(  1.24%)d79.78( 98.76%)
    27. (0.00000) RY*( 7) O   4           s(  0.00%)p 0.00(  0.00%)d 1.00(100.00%)
    28. (0.00000) RY*( 8) O   4           s(  0.00%)p 1.00(  0.17%)d99.99( 99.83%)
    29. (0.00000) RY*( 9) O   4           s(  0.27%)p 3.29(  0.88%)d99.99( 98.86%)
    30. (0.00000) RY*(10) O   4           s(  0.04%)p 3.75(  0.14%)d99.99( 99.82%)
    31. (0.03207) BD*( 1) C   1 - H   2  
                ( 40.86%)   0.6392* C   1 s( 35.38%)p 1.82( 64.53%)d 0.00(  0.09%)
                                           -0.0000 -0.5946 -0.0160 -0.0011  0.7067
                                           -0.0024  0.3819  0.0038 -0.0000 -0.0000
                                           -0.0236 -0.0000 -0.0000 -0.0147  0.0109
                ( 59.14%)  -0.7690* H   2 s(100.00%)
                                           -1.0000 -0.0088
    32. (0.03207) BD*( 1) C   1 - H   3  
                ( 40.86%)   0.6392* C   1 s( 35.38%)p 1.82( 64.53%)d 0.00(  0.09%)
                                           -0.0000 -0.5946 -0.0160 -0.0011 -0.7067
                                            0.0024  0.3819  0.0038 -0.0000 -0.0000
                                            0.0236 -0.0000 -0.0000 -0.0147  0.0109
                ( 59.14%)  -0.7690* H   3 s(100.00%)
                                           -1.0000 -0.0088
    33. (0.00000) BD*( 1) C   1 - O   4  
                ( 63.71%)   0.7982* C   1 s(  0.00%)p 1.00( 99.79%)d 0.00(  0.21%)
                ( 36.29%)  -0.6024* O   4 s(  0.00%)p 1.00( 99.83%)d 0.00(  0.17%)
    34. (0.00046) BD*( 2) C   1 - O   4  
                ( 65.07%)   0.8067* C   1 s( 29.37%)p 2.40( 70.43%)d 0.01(  0.20%)
                                            0.0001  0.5389 -0.0575 -0.0046  0.0000
                                            0.0000  0.8348  0.0859  0.0000  0.0000
                                            0.0000  0.0000  0.0000 -0.0400 -0.0200
                ( 34.93%)  -0.5910* O   4 s( 31.76%)p 2.15( 68.17%)d 0.00(  0.08%)
                                           -0.0000  0.5623 -0.0366 -0.0001  0.0000
                                            0.0000 -0.8256 -0.0108  0.0000  0.0000
                                           -0.0000  0.0000  0.0000 -0.0251 -0.0112


 NHO Directionality and "Bond Bending" (deviations from line of nuclear centers)

         [Thresholds for printing:  angular deviation  >  1.0 degree]
                                    hybrid p-character > 25.0%
                                    orbital occupancy  >  0.10e

                                Line of Centers        Hybrid 1              Hybrid 2
                                ---------------  -------------------   ------------------
                NBO               Theta   Phi    Theta   Phi    Dev    Theta   Phi    Dev
 ========================================================================================
     3. BD (   1) C   1 - O   4    90.0   90.0     0.0    0.0  90.0      0.0    0.0  90.0
     7. LP (   1) O   4             --     --     90.0   90.0   --       --     --    --
     8. LP (   2) O   4             --     --     90.0    0.0   --       --     --    --


 Second Order Perturbation Theory Analysis of Fock Matrix in NBO Basis

     Threshold for printing:   0.50 kcal/mol
                                                                              E(2)  E(j)-E(i) F(i,j)
         Donor NBO (i)                     Acceptor NBO (j)                 kcal/mol   a.u.    a.u. 
 ===================================================================================================

 within unit  1
   1. BD (   1) C   1 - H   2        / 21. RY*(   1) O   4                    1.34    1.64    0.042
   2. BD (   1) C   1 - H   3        / 21. RY*(   1) O   4                    1.34    1.64    0.042
   4. BD (   2) C   1 - O   4        /  9. RY*(   1) C   1                    0.61    1.55    0.028
   5. CR (   1) C   1                / 19. RY*(   1) H   2                    0.50   10.75    0.066
   5. CR (   1) C   1                / 20. RY*(   1) H   3                    0.50   10.75    0.066
   6. CR (   1) O   4                /  9. RY*(   1) C   1                    2.87   19.59    0.212
   7. LP (   1) O   4                /  9. RY*(   1) C   1                    5.65    1.38    0.079
   7. LP (   1) O   4                / 31. BD*(   1) C   1 - H   2            0.53    1.21    0.023
   7. LP (   1) O   4                / 32. BD*(   1) C   1 - H   3            0.53    1.21    0.023
   8. LP (   2) O   4                / 10. RY*(   2) C   1                    2.68    2.29    0.071
   8. LP (   2) O   4                / 31. BD*(   1) C   1 - H   2           11.89    0.73    0.084
   8. LP (   2) O   4                / 32. BD*(   1) C   1 - H   3           11.89    0.73    0.084


 Natural Bond Orbitals (Summary):

                                                            Principal Delocalizations
           NBO                        Occupancy    Energy   (geminal,vicinal,remote)
 ====================================================================================
 Molecular unit  1  (CH2O)
     1. BD (   1) C   1 - H   2          1.99726    -0.59113  21(v)
     2. BD (   1) C   1 - H   3          1.99726    -0.59113  21(v)
     3. BD (   1) C   1 - O   4          2.00000    -0.36664   
     4. BD (   2) C   1 - O   4          1.99959    -0.92482  9(g)
     5. CR (   1) C   1                  1.99968   -10.19066  19(v),20(v)
     6. CR (   1) O   4                  1.99988   -18.95702  9(v)
     7. LP (   1) O   4                  1.99220    -0.75328  9(v),31(v),32(v)
     8. LP (   2) O   4                  1.93208    -0.27305  31(v),32(v),10(v)
     9. RY*(   1) C   1                  0.00510     0.62944   
    10. RY*(   2) C   1                  0.00345     2.01541   
    11. RY*(   3) C   1                  0.00000     0.83561   
    12. RY*(   4) C   1                  0.00001     0.82861   
    13. RY*(   5) C   1                  0.00000     0.51477   
    14. RY*(   6) C   1                  0.00000     3.74340   
    15. RY*(   7) C   1                  0.00000     1.61526   
    16. RY*(   8) C   1                  0.00000     1.88809   
    17. RY*(   9) C   1                  0.00001     2.16488   
    18. RY*(  10) C   1                  0.00001     2.04676   
    19. RY*(   1) H   2                  0.00285     0.56357   
    20. RY*(   1) H   3                  0.00285     0.56357   
    21. RY*(   1) O   4                  0.00298     1.04572   
    22. RY*(   2) O   4                  0.00015     1.29560   
    23. RY*(   3) O   4                  0.00000     1.07449   
    24. RY*(   4) O   4                  0.00000     3.41422   
    25. RY*(   5) O   4                  0.00000     0.95610   
    26. RY*(   6) O   4                  0.00000     2.10062   
    27. RY*(   7) O   4                  0.00000     1.81484   
    28. RY*(   8) O   4                  0.00000     2.01305   
    29. RY*(   9) O   4                  0.00000     2.49639   
    30. RY*(  10) O   4                  0.00000     2.03365   
    31. BD*(   1) C   1 - H   2          0.03207     0.45885   
    32. BD*(   1) C   1 - H   3          0.03207     0.45885   
    33. BD*(   1) C   1 - O   4          0.00000    -0.04453   
    34. BD*(   2) C   1 - O   4          0.00046     0.44259   
       -------------------------------
              Total Lewis   15.91797  ( 99.4873%)
        Valence non-Lewis    0.06461  (  0.4038%)
        Rydberg non-Lewis    0.01742  (  0.1089%)
       -------------------------------
            Total unit  1   16.00000  (100.0000%)
           Charge unit  1    0.00000
 Sorting of NBOs:                    6    5    4    7    2    1    3    8   33   34
 Sorting of NBOs:                   31   32   13   20   19    9   12   11   25   21
 Sorting of NBOs:                   23   22   15   27   16   28   10   30   18   26
 Sorting of NBOs:                   17   29   24   14
 Reordering of NBOs for storage:     6    5    4    7    2    1    3    8   33   34
 Reordering of NBOs for storage:    31   32   13   20   19    9   12   11   25   21
 Reordering of NBOs for storage:    23   22   15   27   16   28   10   30   18   26
 Reordering of NBOs for storage:    17   29   24   14
 Labels of output orbitals:  CR  CR  BD  LP  BD  BD  BD  LP  BD* BD* BD* BD* RY* RY* RY* RY* RY* RY* RY* RY* 
 Labels of output orbitals:  RY* RY* RY* RY* RY* RY* RY* RY* RY* RY* RY* RY* RY* RY* 
 GSVD:  LWork=        -884 too small for GESVD, short by        3770 words or        3770 for optimal perf.
 Leave Link  607 at Tue Dec  7 14:20:01 2021, MaxMem=   104857600 cpu:               0.5 elap:               0.9
 (Enter /Users/gdvg01/gaussiangdvJ05_pgi_18/gdv/l9999.exe)
 Unable to Open any file for archive entry.
 1\1\GINC-DYN1224-215\SP\RB3LYP\6-31G(d)\C1H2O1\GDVG01\07-Dec-2021\0\\#
 P B3LYP/6-31g* pop=savenbos\\NBOs\\0,1\C,0,0.000071,0.590702,0.\H,0,0.
 948638,1.090616,0.\H,0,-0.948331,1.090928,0.\O,0,-0.000143,-0.715445,0
 .\\Version=EM64M-GDVRevJ.05\State=1-A'\HF=-114.4860905\RMSD=6.479e-09\
 Dipole=0.0001658,1.0128587,0.\Quadrupole=0.2543114,-0.2013932,-0.05291
 82,-0.0000759,0.,0.\PG=CS [SG(C1H2O1)]\\@
 The archive entry for this job was punched.


 WE SHOULD BE CAREFUL TO GET OUT OF AN EXPERIENCE ONLY THE WISDOM
 THAT IS IN IT -- AND STOP THERE;
 LEST WE BE LIKE THE CAT THAT SITS DOWN ON A HOT STOVE-LID.
 SHE WILL NEVER SIT DOWN ON A HOT STOVE LID AGAIN;
 BUT ALSO SHE WILL NEVER SIT DOWN ON A COLD ONE ANY MORE.

                                                     -- MARK TWAIN
 Job cpu time:       0 days  0 hours  0 minutes  1.7 seconds.
 Elapsed time:       0 days  0 hours  0 minutes  2.6 seconds.
 File lengths (MBytes):  RWF=      6 Int=      0 D2E=      0 Chk=      1 Scr=      1
 Normal termination of Gaussian DV at Tue Dec  7 14:20:01 2021.
 Initial command:
 /Users/gdvg01/gaussiangdvJ05_pgi_18/gdv/l1.exe "/Users/gdvg01/work/Gau-14209.inp" -scrdir="/Users/gdvg01/work/"
 Entering Link 1 = /Users/gdvg01/gaussiangdvJ05_pgi_18/gdv/l1.exe PID=     14212.
  
 Copyright (c) 1988-2019, Gaussian, Inc.  All Rights Reserved.
  
 This is the private, development version of
 the Gaussian(R) DV system of programs. It is based on
 the Gaussian(R) 16 system (copyright 2016, Gaussian, Inc.),
 the Gaussian(R) 09 system (copyright 2009, Gaussian, Inc.),
 the Gaussian(R) 03 system (copyright 2003, Gaussian, Inc.),
 the Gaussian(R) 98 system (copyright 1998, Gaussian, Inc.),
 the Gaussian(R) 94 system (copyright 1995, Gaussian, Inc.),
 the Gaussian 92(TM) system (copyright 1992, Gaussian, Inc.),
 the Gaussian 90(TM) system (copyright 1990, Gaussian, Inc.),
 the Gaussian 88(TM) system (copyright 1988, Gaussian, Inc.),
 the Gaussian 86(TM) system (copyright 1986, Carnegie Mellon
 University), and the Gaussian 82(TM) system (copyright 1983,
 Carnegie Mellon University). Gaussian is a federally registered
 trademark of Gaussian, Inc.
  
 This software contains proprietary and confidential information,
 including trade secrets, belonging to Gaussian, Inc.
  
 This software is provided under written license and may be
 used, copied, transmitted, or stored only in accord with that
 written license.
  
 The following legend is applicable only to US Government
 contracts under FAR:
  
                    RESTRICTED RIGHTS LEGEND
  
 Use, reproduction and disclosure by the US Government is
 subject to restrictions as set forth in subparagraphs (a)
 and (c) of the Commercial Computer Software - Restricted
 Rights clause in FAR 52.227-19.
  
 Gaussian, Inc.
 340 Quinnipiac St., Bldg. 40, Wallingford CT 06492
  
  
 ---------------------------------------------------------------
 Warning -- This program may not be used in any manner that
 competes with the business of Gaussian, Inc. or will provide
 assistance to any competitor of Gaussian, Inc.  The licensee
 of this program is prohibited from giving any competitor of
 Gaussian, Inc. access to this program.  By using this program,
 the user acknowledges that Gaussian, Inc. is engaged in the
 business of creating and licensing software in the field of
 computational chemistry and represents and warrants to the
 licensee that it is not a competitor of Gaussian, Inc. and that
 it will not use this program in any manner prohibited above.
 ---------------------------------------------------------------
  

 Cite this work as:
 Gaussian Development Version, Revision J.05,
 M. J. Frisch, G. W. Trucks, H. B. Schlegel, G. E. Scuseria, 
 M. A. Robb, J. R. Cheeseman, G. Scalmani, V. Barone, 
 G. A. Petersson, H. Nakatsuji, X. Li, M. Caricato, A. V. Marenich, 
 J. Bloino, B. G. Janesko, R. Gomperts, B. Mennucci, H. P. Hratchian, 
 J. V. Ortiz, A. F. Izmaylov, J. L. Sonnenberg, D. Williams-Young, 
 F. Ding, F. Lipparini, F. Egidi, J. Goings, B. Peng, A. Petrone, 
 T. Henderson, D. Ranasinghe, V. G. Zakrzewski, J. Gao, N. Rega, 
 G. Zheng, W. Liang, M. Hada, M. Ehara, K. Toyota, R. Fukuda, 
 J. Hasegawa, M. Ishida, T. Nakajima, Y. Honda, O. Kitao, H. Nakai, 
 T. Vreven, K. Throssell, J. A. Montgomery, Jr., J. E. Peralta, 
 F. Ogliaro, M. J. Bearpark, J. J. Heyd, E. N. Brothers, K. N. Kudin, 
 V. N. Staroverov, T. A. Keith, R. Kobayashi, J. Normand, 
 K. Raghavachari, A. P. Rendell, J. C. Burant, S. S. Iyengar, 
 J. Tomasi, M. Cossi, J. M. Millam, M. Klene, C. Adamo, R. Cammi, 
 J. W. Ochterski, R. L. Martin, K. Morokuma, O. Farkas, 
 J. B. Foresman, and D. J. Fox, Gaussian, Inc., Wallingford CT, 2019.
 
 ******************************************
 Gaussian DV:  EM64M-GDVRevJ.05 25-Dec-2019
                 7-Dec-2021 
 ******************************************
 %oldchk=nbosF
 %chk=cas_init
 %subst l510 /Users/gdvg01/gaussiangdvJ05_pgi_18/gdvtest_v12_j05/l510
 %subst l1003 /Users/gdvg01/gaussiangdvJ05_pgi_18/gdvtest_v12_j05/l1003
 Copying data from "nbosF.chk" to current chk file "cas_init.chk"
 IOpt=  2 FromEx=T IUOpen= 4 IOptOp= 5 NList=   0 IFRang= 0 IUIn= 4 IUOut= 2.
 ----------------------------------------------------------------------
 #P CAS(2,2, NRoot=2, StateAverage)/ 6-31g* geom=check iop(4/21=20) NoS
 ym iop(4/6=200000000) guess=(read) iop(5/6=5) freq
 ----------------------------------------------------------------------
 1/10=4,29=2,30=1,38=1/1,3;
 2/12=2,15=1,40=1/2;
 3/5=1,6=6,7=1,14=-4,25=1,71=2,116=101,140=1/1,2,3;
 4/5=1,6=200000000,17=2,18=2,21=20,43=1/1,5;
 5/5=2,6=5,17=41000200,28=2,38=6,98=1/10;
 8/6=4,10=90,11=11,107=2/1;
 11/10=10,31=1,42=1,45=1/1;
 10/10=700007,28=2,31=1/3;
 6/7=2,8=2,9=2,10=2/1;
 7/8=1,10=1,25=1,30=1/1,2,3,16;
 1/10=4,30=1/3;
 99//99;
 Leave Link    1 at Tue Dec  7 14:20:01 2021, MaxMem=   104857600 cpu:               0.1 elap:               0.1
 (Enter /Users/gdvg01/gaussiangdvJ05_pgi_18/gdv/l101.exe)
 -----------------------
 Initial CAS Calculation
 -----------------------
 Structure from the checkpoint file:  "cas_init.chk"
 Charge =  0 Multiplicity = 1
 Z-Matrix found in chk file.
 C,0,0.000071,0.590702,0.
 H,0,0.948638,1.090616,0.
 H,0,-0.948331,1.090928,0.
 O,0,-0.000143,-0.715445,0.
 Recover connectivity data from disk.
 ITRead=  0  0  0  0
 MicOpt= -1 -1 -1 -1
 NAtoms=      4 NQM=        4 NQMF=       0 NMMI=      0 NMMIF=      0
                NMic=       0 NMicF=      0.
                    Isotopes and Nuclear Properties:
 (Nuclear quadrupole moments (NQMom) in fm**2, nuclear magnetic moments (NMagM)
  in nuclear magnetons)

  Atom         1           2           3           4
 IAtWgt=          12           1           1          16
 AtmWgt=  12.0000000   1.0078250   1.0078250  15.9949146
 NucSpn=           0           1           1           0
 AtZEff=   3.6000000   1.0000000   1.0000000   5.6000000
 NQMom=    0.0000000   0.0000000   0.0000000   0.0000000
 NMagM=    0.0000000   2.7928460   2.7928460   0.0000000
 AtZNuc=   6.0000000   1.0000000   1.0000000   8.0000000
 Leave Link  101 at Tue Dec  7 14:20:01 2021, MaxMem=   104857600 cpu:               0.1 elap:               0.2
 (Enter /Users/gdvg01/gaussiangdvJ05_pgi_18/gdv/l103.exe)

 GradGradGradGradGradGradGradGradGradGradGradGradGradGradGradGradGradGrad
 Berny optimization.
 Initialization pass.
 Trust Radius=3.00D-01 FncErr=1.00D-07 GrdErr=1.00D-07 EigMax=2.50D+02 EigMin=1.00D-04
 Number of steps in this run=      2 maximum allowed number of steps=      2.
 GradGradGradGradGradGradGradGradGradGradGradGradGradGradGradGradGradGrad

 Leave Link  103 at Tue Dec  7 14:20:01 2021, MaxMem=   104857600 cpu:               0.0 elap:               0.0
 (Enter /Users/gdvg01/gaussiangdvJ05_pgi_18/gdv/l202.exe)
                          Input orientation:                          
 ---------------------------------------------------------------------
 Center     Atomic      Atomic             Coordinates (Angstroms)
 Number     Number       Type             X           Y           Z
 ---------------------------------------------------------------------
      1          6           0        0.000071    0.590702    0.000000
      2          1           0        0.948638    1.090616    0.000000
      3          1           0       -0.948331    1.090928    0.000000
      4          8           0       -0.000143   -0.715445    0.000000
 ---------------------------------------------------------------------
                    Distance matrix (angstroms):
                    1          2          3          4
     1  C    0.000000
     2  H    1.072238   0.000000
     3  H    1.072237   1.896969   0.000000
     4  O    1.306147   2.040108   2.040109   0.000000
 Symmetry turned off by external request.
 Stoichiometry    CH2O
 Framework group  CS[SG(CH2O)]
 Deg. of freedom     5
 Full point group                 CS      NOp   2
 Rotational constants (GHZ):         278.7029546          34.5734129          30.7578654
 Leave Link  202 at Tue Dec  7 14:20:01 2021, MaxMem=   104857600 cpu:               0.0 elap:               0.0
 (Enter /Users/gdvg01/gaussiangdvJ05_pgi_18/gdv/l301.exe)
 Standard basis: 6-31G(d) (6D, 7F)
 Ernie: Thresh=  0.10000D-02 Tol=  0.10000D-05 Strict=F.
    34 basis functions,    64 primitive gaussians,    34 cartesian basis functions
     8 alpha electrons        8 beta electrons
       nuclear repulsion energy        29.7983591141 Hartrees.
 IExCor=    0 DFT=F Ex=HF Corr=None N6=None ScaHFX=  1.000000
 ScaDFX=  1.000000  1.000000  1.000000  1.000000  0.000000  0.000000
 ScaDFX=  0.000000  0.000000  0.000000  0.000000  0.000000  0.000000
 IRadAn=      5 IRanWt=     -1 IRanGd=            0 ICorTp=0 IEmpDi=  4
 NAtoms=    4 NActive=    4 NUniq=    4 SFac= 1.00D+00 NAtFMM=   60 NAOKFM=F Big=F
 Integral buffers will be    131072 words long.
 Regular integral format.
 Two-electron integral symmetry is turned off.
 Leave Link  301 at Tue Dec  7 14:20:01 2021, MaxMem=   104857600 cpu:               0.0 elap:               0.0
 (Enter /Users/gdvg01/gaussiangdvJ05_pgi_18/gdv/l302.exe)
 NPDir=0 NMtPBC=     1 NCelOv=     1 NCel=       1 NClECP=     1 NCelD=      1
         NCelK=      1 NCelE2=     1 NClLst=     1 CellRange=     0.0.
 One-electron integrals computed using PRISM.
 NBasis=    34 RedAO= T EigKep=  1.09D-02  NBF=    34
 NBsUse=    34 1.00D-06 EigRej= -1.00D+00 NBFU=    34
 Leave Link  302 at Tue Dec  7 14:20:02 2021, MaxMem=   104857600 cpu:               0.1 elap:               0.1
 (Enter /Users/gdvg01/gaussiangdvJ05_pgi_18/gdv/l303.exe)
 DipDrv:  MaxL=1.
 Leave Link  303 at Tue Dec  7 14:20:02 2021, MaxMem=   104857600 cpu:               0.0 elap:               0.0
 (Enter /Users/gdvg01/gaussiangdvJ05_pgi_18/gdv/l401.exe)
 Initial guess from the checkpoint file:  "cas_init.chk"
 B after Tr=     0.000000    0.000000    0.000000
         Rot=    1.000000    0.000000    0.000000    0.000000 Ang=   0.00 deg.
 Guess basis will be translated and rotated to current coordinates.
 JPrj=0 DoOrth=F DoCkMO=F.
 Leave Link  401 at Tue Dec  7 14:20:02 2021, MaxMem=   104857600 cpu:               0.1 elap:               0.1
 (Enter /Users/gdvg01/gaussiangdvJ05_pgi_18/gdv/l405.exe)
          Truncation Level=               99999
          a=  1          b=  0          c=  1
          a=N/2 - s   b=2s   c=n- (a+b)
          no. active orbitals (n)  2
          no. active ELECTRONS (N)=  2
                                                  IRREPS TO BE RETAINED = 1
                                                  GROUP IRREP. MULT. TABLE
                                                      1
                                                  IRREP. LABELS FOR ORBITALS
                                                   1 1
          BOTTOM WEIGHT=  2     TOP WEIGHT=  4
          Configuration         1 Symmetry 1 10
          Configuration         2 Symmetry 1 ab
          Configuration         3 Symmetry 1 01
          NO OF BASIS FUNCTIONS =         3 NO TO BE DELETED =    0
 CI Matrix Elements calculated here
          NO. OF CONFIGURATIONS IN REFERENCE SPACE =    1
                                   SECONDARY SPACE =    3
                                   TERTIARY SPACE =    3
          NO. OF ORBITALS =    2
          NO. OF ELECTRONS =    2
          NO. OF WEIGHTS =    3
          REFERENCE STATE CONFIGURATIONS ARE:     0
          NO. OF CORE ORBITALS =    0
          OPTION:  NON-DIAGONAL HOLE LINE INTERACTIONS INCLUDED
 Len28=          98 LenMCI=         101.
 Leave Link  405 at Tue Dec  7 14:20:02 2021, MaxMem=   104857600 cpu:               0.4 elap:               0.4
 (Enter /Users/gdvg01/gaussiangdvJ05_pgi_18/gdvtest_v12_j05/l510/l510.exe)
 Prepare State Averaged 2nd derivatives
  MCSCF will prepare Gradient Dif. and Deriv. Cps.
                       20                  145023
 Enter MCSCF program.
 NBasis=   34 NCore=    7 NVal=    2 NVirt=   25 IFrame=0 Acc=  1.00D-05.
 The Orbitals are not Orthogonal ORTHOGONALIZE them.
  Memory needed for Incore Integrals:                  459850
  Memory needed for direct integral evaluation:                  235778
  Integrals KEPT IN MEMORY
 IBUJAK length=                  106165
 Integral file not found: evaluate integrals 
 FoFCou: FMM=F IPFlag=           0 FMFlag=           0 FMFlg1=           0
         NFxFlg=           0 DoJE=F BraDBF=F KetDBF=F FulRan=T
         wScrn=  0.000000 ICntrl=       600 IOpCl=  0 I1Cent=           0 NGrid=           0
         NMat0=    1 NMatS0=      1 NMatT0=    0 NMatD0=    1 NMtDS0=    0 NMtDT0=    0
 Symmetry not used in FoFCou.
 First order MCSCF but last itn is Quadratic
 Defining IBUGAM
 State Average Calculation.   The weights are:
 St.: 1 w.=0.500000 # St.: 2 w.=0.500000 # St.:
 2ND ORD PT ENERGY     CV   -0.018477   CU   -0.813721   UV   -0.024145
 TOTAL                    -111.884792
 ITN=  1 MaxIt= 64 E=   -111.0284492148 DE=-1.11D+02 Acc= 1.00D-05 Lan=  0
 ITN=  2 MaxIt= 64 E=   -111.2145302003 DE=-1.86D-01 Acc= 1.00D-05 Lan=  0
 ITN=  3 MaxIt= 64 E=   -111.3448846842 DE=-1.30D-01 Acc= 1.00D-05 Lan=  0
 WARNING! : large rotation  I  J  =                       12
                        5
 Step scaled by    0.3385496509725630     
 ITN=  4 MaxIt= 64 E=   -111.4173258199 DE=-7.24D-02 Acc= 1.00D-05 Lan=  0
 WARNING! : large rotation  I  J  =                        8
                        5
 Step scaled by    9.9266686436070867E-002
 ITN=  5 MaxIt= 64 E=   -111.9012791454 DE=-4.84D-01 Acc= 1.00D-05 Lan=  0
 ITN=  6 MaxIt= 64 E=   -111.8415056265 DE= 5.98D-02 Acc= 1.00D-05 Lan=  0
 WARNING! : large rotation  I  J  =                        8
                        5
 Step scaled by    0.6499583124393103     
 ITN=  7 MaxIt= 64 E=   -112.1997241405 DE=-3.58D-01 Acc= 1.00D-05 Lan=  0
 ITN=  8 MaxIt= 64 E=   -112.2606226503 DE=-6.09D-02 Acc= 1.00D-05 Lan=  0
 ITN=  9 MaxIt= 64 E=   -112.3912558125 DE=-1.31D-01 Acc= 1.00D-05 Lan=  0
 ITN= 10 MaxIt= 64 E=   -112.4599936326 DE=-6.87D-02 Acc= 1.00D-05 Lan=  0
 ITN= 11 MaxIt= 64 E=   -112.4692018227 DE=-9.21D-03 Acc= 1.00D-05 Lan=  0
 ITN= 12 MaxIt= 64 E=   -112.5014689636 DE=-3.23D-02 Acc= 1.00D-05 Lan=  0
 ITN= 13 MaxIt= 64 E=   -112.5158653377 DE=-1.44D-02 Acc= 1.00D-05 Lan=  0
 ITN= 14 MaxIt= 64 E=   -112.5546381770 DE=-3.88D-02 Acc= 1.00D-05 Lan=  0
 ITN= 15 MaxIt= 64 E=   -112.5786803636 DE=-2.40D-02 Acc= 1.00D-05 Lan=  0
 ITN= 16 MaxIt= 64 E=   -112.6112021230 DE=-3.25D-02 Acc= 1.00D-05 Lan=  0
 ITN= 17 MaxIt= 64 E=   -112.6338793884 DE=-2.27D-02 Acc= 1.00D-05 Lan=  0
 WARNING! : large rotation  I  J  =                       12
                        5
 Step scaled by    5.5191391674564716E-002
 ITN= 18 MaxIt= 64 E=   -112.7533993828 DE=-1.20D-01 Acc= 1.00D-05 Lan=  0
 WARNING! : large rotation  I  J  =                       12
                        5
 Step scaled by    0.9498190444043637     
 ITN= 19 MaxIt= 64 E=   -112.6522378476 DE= 1.01D-01 Acc= 1.00D-05 Lan=  0
 WARNING! : large rotation  I  J  =                       12
                        5
 Step scaled by    0.3895326047044915     
 ITN= 20 MaxIt= 64 E=   -112.7918668808 DE=-1.40D-01 Acc= 1.00D-05 Lan=  0
 WARNING! : large rotation  I  J  =                        8
                        5
 Step scaled by    0.3677830319438409     
 ITN= 21 MaxIt= 64 E=   -113.1105156380 DE=-3.19D-01 Acc= 1.00D-05 Lan=  0
 WARNING! : large rotation  I  J  =                        8
                        5
 Step scaled by    0.5459508601898632     
 ITN= 22 MaxIt= 64 E=   -113.2749299538 DE=-1.64D-01 Acc= 1.00D-05 Lan=  0
 ITN= 23 MaxIt= 64 E=   -113.5455857520 DE=-2.71D-01 Acc= 1.00D-05 Lan=  0
 ITN= 24 MaxIt= 64 E=   -113.6712631401 DE=-1.26D-01 Acc= 1.00D-05 Lan=  0
 ITN= 25 MaxIt= 64 E=   -113.6875846509 DE=-1.63D-02 Acc= 1.00D-05 Lan=  0
 ITN= 26 MaxIt= 64 E=   -113.7107331633 DE=-2.31D-02 Acc= 1.00D-05 Lan=  0
 ITN= 27 MaxIt= 64 E=   -113.7247845098 DE=-1.41D-02 Acc= 1.00D-05 Lan=  0
 ITN= 28 MaxIt= 64 E=   -113.7257068634 DE=-9.22D-04 Acc= 1.00D-05 Lan=  0
 ITN= 29 MaxIt= 64 E=   -113.7304229982 DE=-4.72D-03 Acc= 1.00D-05 Lan=  0
 ITN= 30 MaxIt= 64 E=   -113.7287595048 DE= 1.66D-03 Acc= 1.00D-05 Lan=  0
 ITN= 31 MaxIt= 64 E=   -113.7310261456 DE=-2.27D-03 Acc= 1.00D-05 Lan=  0
 ITN= 32 MaxIt= 64 E=   -113.7296191585 DE= 1.41D-03 Acc= 1.00D-05 Lan=  0
 ITN= 33 MaxIt= 64 E=   -113.7309108286 DE=-1.29D-03 Acc= 1.00D-05 Lan=  0
 ITN= 34 MaxIt= 64 E=   -113.7299665140 DE= 9.44D-04 Acc= 1.00D-05 Lan=  0
 ITN= 35 MaxIt= 64 E=   -113.7307451873 DE=-7.79D-04 Acc= 1.00D-05 Lan=  0
 ITN= 36 MaxIt= 64 E=   -113.7301433881 DE= 6.02D-04 Acc= 1.00D-05 Lan=  0
 ITN= 37 MaxIt= 64 E=   -113.7306219889 DE=-4.79D-04 Acc= 1.00D-05 Lan=  0
 ITN= 38 MaxIt= 64 E=   -113.7302446137 DE= 3.77D-04 Acc= 1.00D-05 Lan=  0
 ITN= 39 MaxIt= 64 E=   -113.7305410569 DE=-2.96D-04 Acc= 1.00D-05 Lan=  0
 ITN= 40 MaxIt= 64 E=   -113.7303057971 DE= 2.35D-04 Acc= 1.00D-05 Lan=  0
 ITN= 41 MaxIt= 64 E=   -113.7304900002 DE=-1.84D-04 Acc= 1.00D-05 Lan=  0
 ITN= 42 MaxIt= 64 E=   -113.7303436561 DE= 1.46D-04 Acc= 1.00D-05 Lan=  0
 ITN= 43 MaxIt= 64 E=   -113.7304582563 DE=-1.15D-04 Acc= 1.00D-05 Lan=  0
 ITN= 44 MaxIt= 64 E=   -113.7303672881 DE= 9.10D-05 Acc= 1.00D-05 Lan=  0
 ITN= 45 MaxIt= 64 E=   -113.7304386115 DE=-7.13D-05 Acc= 1.00D-05 Lan=  0
 ITN= 46 MaxIt= 64 E=   -113.7303820732 DE= 5.65D-05 Acc= 1.00D-05 Lan=  0
 ITN= 47 MaxIt= 64 E=   -113.7304264633 DE=-4.44D-05 Acc= 1.00D-05 Lan=  0
 ITN= 48 MaxIt= 64 E=   -113.7303913212 DE= 3.51D-05 Acc= 1.00D-05 Lan=  0
 ITN= 49 MaxIt= 64 E=   -113.7304189456 DE=-2.76D-05 Acc= 1.00D-05 Lan=  0
 ITN= 50 MaxIt= 64 E=   -113.7303970998 DE= 2.18D-05 Acc= 1.00D-05 Lan=  0
 ITN= 51 MaxIt= 64 E=   -113.7304142885 DE=-1.72D-05 Acc= 1.00D-05 Lan=  0
 ITN= 52 MaxIt= 64 E=   -113.7304007065 DE= 1.36D-05 Acc= 1.00D-05 Lan=  0
 ITN= 53 MaxIt= 64 E=   -113.7304114006 DE=-1.07D-05 Acc= 1.00D-05 Lan=  0
 ITN= 54 MaxIt= 64 E=   -113.7304029554 DE= 8.45D-06 Acc= 1.00D-05 Lan=  0
 ... Do an extra-iteration for final printing.


                    EIGENVALUES AND  EIGENVECTORS OF CI MATRIX



   ( 1)     EIGENVALUE   -113.8288633    
 (    1) 0.9996986 (    3)-0.0245491 (    2) 0.0000036 (


   ( 2)     EIGENVALUE   -113.7304096        2.6791 eV
 (    2) 1.0000000 (    1)-0.0000036 (    3) 0.0000005 (
 Final one electron symbolic density matrix:
                1             2 
      1  0.100000D+01
      2 -0.852763D-05  0.100000D+01
 Density Matrix for State                           1
                1             2 
      1  0.199879D+01
      2  0.983524D-05  0.120531D-02
  Final State Averaged  Density Matrix
                1             2 
      1  0.149940D+01
      2  0.653803D-06  0.500603D+00
 MCSCF converged.
 Leave Link  510 at Tue Dec  7 14:20:03 2021, MaxMem=   104857600 cpu:               1.0 elap:               1.0
 (Enter /Users/gdvg01/gaussiangdvJ05_pgi_18/gdv/l801.exe)
 Range of M.O.s used for correlation:     1    34
 NBasis=    34 NAE=     8 NBE=     8 NFC=     0 NFV=     0
 NROrb=     34 NOA=     8 NOB=     8 NVA=    26 NVB=    26
 Leave Link  801 at Tue Dec  7 14:20:03 2021, MaxMem=   104857600 cpu:               0.0 elap:               0.0
 (Enter /Users/gdvg01/gaussiangdvJ05_pgi_18/gdv/l1101.exe)
 Not using compressed storage, NAtomX=     4.
 Will process      4 centers per pass.
 Leave Link 1101 at Tue Dec  7 14:20:04 2021, MaxMem=   104857600 cpu:               0.1 elap:               0.1
 (Enter /Users/gdvg01/gaussiangdvJ05_pgi_18/gdvtest_v12_j05/l1003/l1003.exe)
 AJJ INITCP                       0 F                       0
 State Average second derivatives
 Gradient Difference/Derivative Coupling Calculation
 NO. OF ORBITALS         = 34      NO. OF CORE-ORBITALS    =  7
 NO. OF VALENCE-ORBITALS =  2      NO. OF VIRTUAL-ORBITALS = 25
 One call to fofjk will do it.
 FoFJK:  IHMeth= 0 ICntrl=    3500 DoSepK=F KAlg= 0 I1Cent=           0 FoldK=F
 IRaf=         0 NMat=       7 IRICut=       1 DoRegI=T DoRafI=F ISym2E= 0 IDoP0=0 IntGTp=1.
 FoFCou: FMM=F IPFlag=           0 FMFlag=      100000 FMFlg1=           0
         NFxFlg=           0 DoJE=F BraDBF=F KetDBF=F FulRan=T
         wScrn=  0.000000 ICntrl=      3500 IOpCl=  1 I1Cent=           0 NGrid=           0
         NMat0=    7 NMatS0=      7 NMatT0=    0 NMatD0=    7 NMtDS0=    0 NMtDT0=    0
 Symmetry not used in FoFCou.
 JobTyp= 0 Pass  1:  I=   1 to   2  IAt=   2 to   4.
 d2emc:  iwhgrd=                       7 igrdif=                       1
  inonop=                       5
     State    2   State    1
     Energy difference=     -0.0984537
  Crude BS vectors
 Derivative Coupling 
        -0.0000000016       -0.0000007509       -0.0000010028
         0.0000000199        0.0000000404       -0.0227763142
        -0.0000000197        0.0000000409        0.0227761416
         0.0000000014        0.0000006696        0.0000011754
 Unscaled Gradient Difference 
        -0.0000339759       -0.2060067088        0.0000000008
         0.0016117602        0.0103583219        0.0000000290
        -0.0016081737        0.0103588013       -0.0000000291
         0.0000303894        0.1852895856       -0.0000000007
 Gradient of iOther State 
         0.0000334335        0.2059617087       -0.0000000004
        -0.0016236553       -0.0103675075       -0.0000000145
         0.0016204925       -0.0103680690        0.0000000145
        -0.0000302707       -0.1852261323        0.0000000003
 Gradient of iVec State. 
        -0.0000005424       -0.0000450001        0.0000000004
        -0.0000118951       -0.0000091856        0.0000000145
         0.0000123187       -0.0000092677       -0.0000000145
         0.0000001187        0.0000634534       -0.0000000004
 Angle of DC    (L=0.0322) and GD    (L=0.2775) is  90.00 degs
 Angle of GriVec(L=0.0001) and GrOthr(L=0.2774) is 158.21 degs
 Gradient of iOther State 
         0.0000334335        0.2059617087       -0.0000000004
        -0.0016236553       -0.0103675075       -0.0000000145
         0.0016204925       -0.0103680690        0.0000000145
        -0.0000302707       -0.1852261323        0.0000000003
 Gradient of iVec State. 
        -0.0000005424       -0.0000450001        0.0000000004
        -0.0000118951       -0.0000091856        0.0000000145
         0.0000123187       -0.0000092677       -0.0000000145
         0.0000001187        0.0000634534       -0.0000000004
 The angle between DerCp and UGrDif has cos= 0.000
 and it is: 1.571 rad or : 90.00 degrees.
 The length**2 of DerCp is:1.0000 and GrDif is:1.0000
 But the length of DerCp is:1.0000 and GrDif is:1.0000
 ------------------ Projection to constraints complement -----------
 Angle of DerCp (L=1.0000) and UGrDif(L=1.0000) is  90.00 degs
 Angle of Force (L=0.0001) and UGrDif(L=1.0000) is  21.78 degs
 Angle of Force (L=0.0001) and DerCp (L=1.0000) is  90.01 degs
 Projected Gradient of iVec State. 
        -0.0000005332        0.0000106484        0.0000000004
        -0.0000123304       -0.0000119837       -0.0000000000
         0.0000127532       -0.0000120660       -0.0000000000
         0.0000001105        0.0000134013       -0.0000000004
 Projected Ivec Gradient: RMS= 0.00001 MAX= 0.00001
 Leave Link 1003 at Tue Dec  7 14:20:04 2021, MaxMem=   104857600 cpu:               0.8 elap:               0.8
 (Enter /Users/gdvg01/gaussiangdvJ05_pgi_18/gdv/l601.exe)
 Copying SCF densities to generalized density rwf, IOpCl= 0 IROHF=3.

 **********************************************************************

            Population analysis using the SCF Density.

 **********************************************************************

 Alpha  occ. eigenvalues --    0.00000   0.00000   0.00000   0.00000   0.00000
 Alpha  occ. eigenvalues --    0.00000   0.00000   0.00000
 Alpha virt. eigenvalues --    0.00000   0.00000   0.00000   0.00000   0.00000
 Alpha virt. eigenvalues --    0.00000   0.00000   0.00000   0.00000   0.00000
 Alpha virt. eigenvalues --    0.00000   0.00000   0.00000   0.00000   0.00000
 Alpha virt. eigenvalues --    0.00000   0.00000   0.00000   0.00000   0.00000
 Alpha virt. eigenvalues --    0.00000   0.00000   0.00000   0.00000   0.00000
 Alpha virt. eigenvalues --    0.00000
          Condensed to atoms (all electrons):
               1          2          3          4
     1  C    5.381801   0.372450   0.372451   0.263947
     2  H    0.372450   0.470219  -0.032996  -0.029501
     3  H    0.372451  -0.032996   0.470221  -0.029502
     4  O    0.263947  -0.029501  -0.029502   7.844063
 Mulliken charges:
               1
     1  C   -0.390649
     2  H    0.219829
     3  H    0.219826
     4  O   -0.049007
 Sum of Mulliken charges =  -0.00000
 Mulliken charges with hydrogens summed into heavy atoms:
               1
     1  C    0.049007
     4  O   -0.049007
 Electronic spatial extent (au):  <R**2>=             63.3889
 Charge=             -0.0000 electrons
 Dipole moment (field-independent basis, Debye):
    X=              0.0001    Y=              0.4872    Z=              0.0000  Tot=              0.4872
 Quadrupole moment (field-independent basis, Debye-Ang):
   XX=            -10.0780   YY=            -11.8040   ZZ=            -13.5821
   XY=             -0.0003   XZ=              0.0000   YZ=             -0.0000
 Traceless Quadrupole moment (field-independent basis, Debye-Ang):
   XX=              1.7433   YY=              0.0174   ZZ=             -1.7607
   XY=             -0.0003   XZ=              0.0000   YZ=             -0.0000
 Octapole moment (field-independent basis, Debye-Ang**2):
  XXX=              0.0009  YYY=             -1.7775  ZZZ=              0.0000  XYY=             -0.0001
  XXY=              0.2726  XXZ=              0.0000  XZZ=              0.0000  YZZ=             -1.9030
  YYZ=             -0.0000  XYZ=              0.0000
 Hexadecapole moment (field-independent basis, Debye-Ang**3):
 XXXX=            -14.6642 YYYY=            -46.4609 ZZZZ=            -12.9675 XXXY=             -0.0017
 XXXZ=              0.0000 YYYX=             -0.0033 YYYZ=             -0.0000 ZZZX=              0.0000
 ZZZY=             -0.0000 XXYY=             -8.4629 XXZZ=             -5.0242 YYZZ=            -11.0046
 XXYZ=             -0.0000 YYXZ=              0.0000 ZZXY=             -0.0009
 N-N= 2.979835911405D+01 E-N=-3.267604435831D+02  KE= 1.130933947261D+02
 Leave Link  601 at Tue Dec  7 14:20:05 2021, MaxMem=   104857600 cpu:               0.0 elap:               0.0
 (Enter /Users/gdvg01/gaussiangdvJ05_pgi_18/gdv/l701.exe)
 ... and contract with generalized density number  0.
 Compute integral second derivatives.
 Leave Link  701 at Tue Dec  7 14:20:05 2021, MaxMem=   104857600 cpu:               0.1 elap:               0.1
 (Enter /Users/gdvg01/gaussiangdvJ05_pgi_18/gdv/l702.exe)
 L702 exits ... SP integral derivatives will be done elsewhere.
 Leave Link  702 at Tue Dec  7 14:20:05 2021, MaxMem=   104857600 cpu:               0.0 elap:               0.0
 (Enter /Users/gdvg01/gaussiangdvJ05_pgi_18/gdv/l703.exe)
 Integral derivatives from FoFJK, PRISM(SPDF).
 Compute integral second derivatives, UseDBF=F ICtDFT=           0.
 Calling FoFJK, ICntrl=    100127 FMM=F ISym2X=0 I1Cent= 0 IOpClX= 0 NMat=1 NMatS=1 NMatT=0.
 FoFJK:  IHMeth= 1 ICntrl=  100127 DoSepK=F KAlg= 0 I1Cent=   300000000 FoldK=F
 IRaf=         0 NMat=       1 IRICut=       1 DoRegI=T DoRafI=F ISym2E= 0 IDoP0=0 IntGTp=1.
 FoFCou: FMM=F IPFlag=           0 FMFlag=      100000 FMFlg1=         800
         NFxFlg=           0 DoJE=F BraDBF=F KetDBF=F FulRan=T
         wScrn=  0.000000 ICntrl=    100127 IOpCl=  0 I1Cent=   300000000 NGrid=           0
         NMat0=    1 NMatS0=      1 NMatT0=    0 NMatD0=    1 NMtDS0=    0 NMtDT0=    0
 Symmetry not used in FoFCou.
 Leave Link  703 at Tue Dec  7 14:20:05 2021, MaxMem=   104857600 cpu:               0.4 elap:               0.4
 (Enter /Users/gdvg01/gaussiangdvJ05_pgi_18/gdv/l716.exe)
 Full mass-weighted force constant matrix:
 Low frequencies --- -635.2051 -562.1415   -0.0015   -0.0015   -0.0014  312.4202
 Low frequencies ---  341.0847 1104.4871 1372.2294
 ******    1 imaginary frequencies (negative Signs) ****** 
 Diagonal vibrational polarizability:
        0.0000000       0.0000000       0.0000000
 Harmonic frequencies (cm**-1), IR intensities (KM/Mole), Raman scattering
 activities (A**4/AMU), depolarization ratios for plane and unpolarized
 incident light, reduced masses (AMU), force constants (mDyne/A),
 and normal coordinates:
                      1                      2                      3
                      A                      A                      A
 Frequencies --   -634.8681              1104.2356              1372.2294
 Red. masses --      1.3132                 1.2833                 3.5245
 Frc consts  --      0.3119                 0.9219                 3.9102
 IR Inten    --      0.0000                 0.0000                 0.0000
  Atom  AN      X      Y      Z        X      Y      Z        X      Y      Z
     1   6    -0.00   0.00  -0.16     0.13  -0.00  -0.00    -0.00  -0.31  -0.00
     2   1     0.00   0.00   0.70    -0.23   0.66   0.00     0.15  -0.62   0.00
     3   1     0.00  -0.00   0.70    -0.23  -0.66   0.00    -0.15  -0.62   0.00
     4   8     0.00  -0.00   0.03    -0.07   0.00   0.00     0.00   0.31   0.00
                      4                      5                      6
                      A                      A                      A
 Frequencies --   1631.8295              3322.2312              3454.2260
 Red. masses --      1.3266                 1.0422                 1.1213
 Frc consts  --      2.0813                 6.7775                 7.8828
 IR Inten    --      0.0000                 0.0000                 0.0000
  Atom  AN      X      Y      Z        X      Y      Z        X      Y      Z
     1   6    -0.00  -0.16   0.00    -0.00  -0.06  -0.00    -0.10   0.00   0.00
     2   1    -0.39   0.58  -0.00     0.63   0.33   0.00     0.62   0.34  -0.00
     3   1     0.39   0.58  -0.00    -0.63   0.33   0.00     0.62  -0.34  -0.00
     4   8     0.00   0.05  -0.00     0.00   0.00   0.00    -0.00   0.00  -0.00

 -------------------
 - Thermochemistry -
 -------------------
 Temperature   298.150 Kelvin.  Pressure      1.00000 Atm.
 Atom     1 has atomic number  6 and mass  12.00000
 Atom     2 has atomic number  1 and mass   1.00783
 Atom     3 has atomic number  1 and mass   1.00783
 Atom     4 has atomic number  8 and mass  15.99491
 Molecular mass:    30.01056 amu.
 Principal axes and moments of inertia in atomic units:
                           1         2         3
     Eigenvalues --     6.47550  52.20026  58.67576
           X            0.00016   1.00000   0.00000
           Y            1.00000  -0.00016   0.00000
           Z            0.00000  -0.00000   1.00000
 This molecule is an asymmetric top.
 Rotational symmetry number  1.
 Rotational temperatures (Kelvin)     13.37563     1.65926     1.47614
 Rotational constants (GHZ):         278.70295    34.57341    30.75787
    1 imaginary frequencies ignored.
 Zero-point vibrational energy      65105.3 (Joules/Mol)
                                   15.56053 (Kcal/Mol)
 Vibrational temperatures:   1588.75  1974.33  2347.84  4779.95  4969.86
          (Kelvin)
 
 Zero-point correction=                           0.024797 (Hartree/Particle)
 Thermal correction to Energy=                    0.027666
 Thermal correction to Enthalpy=                  0.028610
 Thermal correction to Gibbs Free Energy=         0.003022
 Sum of electronic and zero-point Energies=           -113.705612
 Sum of electronic and thermal Energies=              -113.702744
 Sum of electronic and thermal Enthalpies=            -113.701800
 Sum of electronic and thermal Free Energies=         -113.727387
 
                     E (Thermal)             CV                S
                      KCal/Mol        Cal/Mol-Kelvin    Cal/Mol-Kelvin
 Total                   17.360              6.401             53.853
 Electronic               0.000              0.000              0.000
 Translational            0.889              2.981             36.130
 Rotational               0.889              2.981             17.635
 Vibrational             15.583              0.440              0.088
                       Q            Log10(Q)             Ln(Q)
 Total Bot       0.407209D-01         -1.390183         -3.201014
 Total V=0       0.103698D+11         10.015768         23.062159
 Vib (Bot)       0.395279D-11        -11.403096        -26.256598
 Vib (V=0)       0.100660D+01          0.002855          0.006574
 Electronic      0.100000D+01          0.000000          0.000000
 Translational   0.646197D+07          6.810365         15.681445
 Rotational      0.159422D+04          3.202548          7.374139
 -------------------------------------------------------------------
 Center     Atomic                   Forces (Hartrees/Bohr)
 Number     Number              X              Y              Z
 -------------------------------------------------------------------
      1        6           0.000000542    0.000045000   -0.000000000
      2        1           0.000011895    0.000009186   -0.000000014
      3        1          -0.000012319    0.000009268    0.000000015
      4        8          -0.000000119   -0.000063453    0.000000000
 -------------------------------------------------------------------
 Cartesian Forces:  Max     0.000063453 RMS     0.000023301
 Z-matrix is all fixed cartesians, so copy forces.
 Force constants in Cartesian coordinates: 
                1             2             3             4             5 
      1  0.708750D+00
      2  0.390531D-05  0.745838D+00
      3  0.000000D+00  0.000000D+00 -0.288976D-01
      4 -0.317649D+00 -0.123745D+00  0.000000D+00  0.328412D+00
      5 -0.133616D+00 -0.127358D+00  0.000000D+00  0.143678D+00  0.141066D+00
      6  0.000000D+00  0.000000D+00  0.190906D-01  0.000000D+00  0.000000D+00
      7 -0.317565D+00  0.123809D+00  0.000000D+00 -0.144032D-01  0.155555D-01
      8  0.133678D+00 -0.127445D+00  0.000000D+00 -0.155464D-01  0.134496D-01
      9  0.000000D+00  0.000000D+00  0.190890D-01  0.000000D+00  0.000000D+00
     10 -0.735364D-01 -0.673850D-04  0.000000D+00  0.363987D-02 -0.256180D-01
     11 -0.665085D-04 -0.491035D+00  0.000000D+00 -0.438677D-02 -0.271571D-01
     12  0.000000D+00  0.000000D+00 -0.928201D-02  0.000000D+00  0.000000D+00
                6             7             8             9            10 
      6 -0.111398D-01
      7  0.000000D+00  0.328318D+00
      8  0.000000D+00 -0.143741D+00  0.141162D+00
      9  0.912879D-03  0.000000D+00  0.000000D+00 -0.111389D-01
     10  0.000000D+00  0.364991D-02  0.256087D-01  0.000000D+00  0.662466D-01
     11  0.000000D+00  0.437650D-02 -0.271669D-01  0.000000D+00  0.767787D-04
     12 -0.886369D-02  0.000000D+00  0.000000D+00 -0.886296D-02  0.000000D+00
               11            12 
     11  0.545359D+00
     12  0.000000D+00  0.270087D-01
 Leave Link  716 at Tue Dec  7 14:20:05 2021, MaxMem=   104857600 cpu:               0.0 elap:               0.0
 (Enter /Users/gdvg01/gaussiangdvJ05_pgi_18/gdv/l103.exe)

 GradGradGradGradGradGradGradGradGradGradGradGradGradGradGradGradGradGrad
 Berny optimization.
 Search for a local minimum.
 Step number   1 out of a maximum of    2
 All quantities printed in internal units (Hartrees-Bohrs-Radians)
 Second derivative matrix not updated -- analytic derivatives used.
 The second derivative matrix:
                          X1        Y1        Z1        X2        Y2
           X1           0.70875
           Y1           0.00000   0.74584
           Z1          -0.00000   0.00000  -0.02890
           X2          -0.31765  -0.12375   0.00000   0.32841
           Y2          -0.13362  -0.12736  -0.00000   0.14368   0.14107
[...]
      6  0.000000D+00  0.000000D+00  0.191879D-01  0.000000D+00  0.000000D+00
      7 -0.318055D+00  0.124186D+00  0.000000D+00 -0.144366D-01  0.155729D-01
      8  0.134067D+00 -0.127593D+00  0.000000D+00 -0.155638D-01  0.134570D-01
      9  0.000000D+00  0.000000D+00  0.191882D-01  0.000000D+00  0.000000D+00
     10 -0.735086D-01 -0.684374D-04  0.000000D+00  0.365494D-02 -0.256226D-01
     11 -0.683576D-04 -0.491554D+00  0.000000D+00 -0.436689D-02 -0.271759D-01
     12  0.000000D+00  0.000000D+00 -0.918911D-02  0.000000D+00  0.000000D+00
                6             7             8             9            10 
      6 -0.112591D-01
      7  0.000000D+00  0.328827D+00
      8  0.000000D+00 -0.144116D+00  0.141322D+00
      9  0.941737D-03  0.000000D+00  0.000000D+00 -0.112593D-01
     10  0.000000D+00  0.366482D-02  0.256125D-01  0.000000D+00  0.661889D-01
     11  0.000000D+00  0.435665D-02 -0.271858D-01  0.000000D+00  0.785988D-04
     12 -0.887059D-02  0.000000D+00  0.000000D+00 -0.887066D-02  0.000000D+00
               11            12 
     11  0.545915D+00
     12  0.000000D+00  0.269304D-01
 Leave Link  716 at Tue Dec  7 14:20:42 2021, MaxMem=   104857600 cpu:               0.0 elap:               0.0
 (Enter /Users/gdvg01/gaussiangdvJ05_pgi_18/gdv/l118.exe)
 TRJ-TRJ-TRJ-TRJ-TRJ-TRJ-TRJ-TRJ-TRJ-TRJ-TRJ-TRJ-TRJ-TRJ-TRJ-TRJ-TRJ-TRJ
 Trajectory Number     1    Step Number    11

 Eigenvalues of Mass-weighted Force Constants in hartree/(bohr**2*amu):
    -0.15361492D-01     0.46054687D-01     0.71324291D-01     0.10072856D+00
     0.41847373D+00     0.45234921D+00     0.00000000D+00     0.00000000D+00
     0.00000000D+00     0.00000000D+00     0.00000000D+00     0.00000000D+00
 Do projection in correction step
 Using fifth order polynomial potential fitting
 Use Bulirsch-Stoer Integration Method First
      PEZero:  N= 2 I= 1 D=  1.88D-01 Err=  2.95D-07
      PEZero:  N= 2 I= 1 D=  1.88D-01 Err=  4.34D-06
      PEZero:  N= 3 I= 2 D=  3.47D-02 Err=  1.34D-07
      PEZero:  N= 3 I= 1 D=  2.22D-01 Err=  6.88D-10
      PEZero:  N= 3 I= 2 D=  3.47D-02 Err=  2.16D-06
      PEZero:  N= 3 I= 1 D=  2.22D-01 Err=  6.58D-08
      PEZero:  N= 4 I= 3 D=  1.22D-02 Err=  7.53D-08
      PEZero:  N= 4 I= 2 D=  4.69D-02 Err=  7.79D-11
      PEZero:  N= 4 I= 1 D=  2.34D-01 Err=  2.51D-11
      PEZero:  N= 4 I= 3 D=  1.22D-02 Err=  1.25D-06
      PEZero:  N= 4 I= 2 D=  4.69D-02 Err=  1.69D-08
      PEZero:  N= 4 I= 1 D=  2.34D-01 Err=  1.34D-10
 The MW distances (sqrt(amu)*bohr) between:
   1st base point and 2nd base point   0.8457490192D-03
   1st base point and start point      0.6437491919D-03
   2nd base point and start point      0.2019999509D-03
   1st base point and end point        0.8388093696D-03
   2nd base point and end point        0.6939649797D-05
   start point and end point           0.1950603041D-03
 Energy from last cycle -0.1137304068D+03 A.U.
 Energy from this cycle -0.1137303937D+03 A.U.
 Energy difference (2nd-5th)  0.8452616385D-10 A.U.
 Correct distance  0.6939649798D-05 sqrt(amu)*Bohr
 Gradient from poly-fit:
 I=    1 X=   4.956805124920D-06 Y=   3.250302876587D-02 Z=   0.000000000000D+00
 I=    2 X=   1.297638837405D-02 Y=  -1.486733639534D-03 Z=   0.000000000000D+00
 I=    3 X=  -1.297657536555D-02 Y=  -1.482529607142D-03 Z=   0.000000000000D+00
 I=    4 X=  -4.769813627965D-06 Y=  -2.953376551920D-02 Z=   0.000000000000D+00
 Gradient from 2nd-fit:
 I=    1 X=   4.966426704205D-06 Y=   3.255652907459D-02 Z=   0.000000000000D+00
 I=    2 X=   1.299798632035D-02 Y=  -1.489108271004D-03 Z=   0.000000000000D+00
 I=    3 X=  -1.299817419396D-02 Y=  -1.484898115126D-03 Z=   0.000000000000D+00
 I=    4 X=  -4.778553098762D-06 Y=  -2.958252268846D-02 Z=   0.000000000000D+00

 Summary information for step     11
 Time (fs)     0.872393
 EKin =       0.0000164; EPot =    -113.7304101; ETot =    -113.7303937 A.U.
 Angular momentum (instantaneous)
   JX = -0.1139863347D-16  JY =  0.1891303698D-20  JZ = -0.9661222596D-14
 Jtot =  0.9661229320D-14 H-BAR;  J (Quantum Number) =  0.0000000000D+00
 Total energy  -1.137304D+02  Delta-E   1.312300D-05 A.U.
 Total angular momentum   9.661229D-15  Delta-A   1.229711D-16 h-bar
 Cartesian coordinates: (bohr)
 I=    1 X=   2.050339316985D-04 Y=   1.251881297892D+00 Z=   0.000000000000D+00
 I=    2 X=   1.791908139885D+00 Y=   2.196844461390D+00 Z=   0.000000000000D+00
 I=    3 X=  -1.791186169823D+00 Y=   2.197433822837D+00 Z=   0.000000000000D+00
 I=    4 X=  -1.993150170535D-04 Y=  -1.216088968705D+00 Z=   0.000000000000D+00
 MW cartesian velocity: (sqrt(amu)*bohr/sec)
 I=    1 X=  -4.159354324640D+08 Y=  -2.358277029056D+12 Z=  -1.549785219172D+04
 I=    2 X=  -3.276870823447D+12 Y=   3.636756896961D+11 Z=   1.933675159719D+04
 I=    3 X=   3.276994299358D+12 Y=   3.627301256292D+11 Z=   1.933677479322D+04
 I=    4 X=   3.292734646282D+08 Y=   1.860312887760D+12 Z=   3.715988677931D+03


 Final analysis for traj   1
 Traj calculation does not meet the product criterion.


 Analysis of fragment    1

 Instantaneous rotational analysis:
 Q(CM): X=  0.354048029140D-17 Y=  0.236764200385D-15 Z= -0.433363268961D-26
 V(CM): X=  0.218880936382D-04 Y=  0.317920679227D-03 Z= -0.149658371144D-10
 Angular momentum in principle axes
   JX = -0.1139863363D-16  JY =  0.9661222596D-14  JZ =  0.2361370558D-22
 Jtot =  0.9661229320D-14  H-BAR;  J (Quantum Number) =  0.0000000000D+00
 Angular momentum in original axes
   JX = -0.1139863347D-16  JY =  0.1891303698D-20  JZ = -0.9661222596D-14
 Jtot =  0.9661229320D-14  H-BAR;  J (Quantum Number) =  0.0000000000D+00

 Etrn =  0.2049508987D-35 Erot =  0.4364420605D-33 Evib(kin) =  0.1640529103D-04 au
 Epot = -0.1137304101D+03 Etot = -0.1137303937D+03 au

 Trajectory summary for trajectory      1
 Energy/gradient evaluations           10
 Hessian evaluations                   10

 Trajectory summary
   Time (fs)   Kinetic (au)   Potent (au)   Delta E (au)     Delta A (h-bar)
     0.000000     0.0000000  -113.7304085     0.0000000     0.0000000000000000
     0.139113     0.0000000  -113.7304085     0.0000000     0.0000000000000096
     0.145707     0.0000001  -113.7304075     0.0000011     0.0000000000000096
     0.265736     0.0000002  -113.7304076     0.0000011     0.0000000000000102
     0.356138     0.0000012  -113.7304082     0.0000016     0.0000000000000103
     0.440451     0.0000003  -113.7304072     0.0000015     0.0000000000000101
     0.491015     0.0000007  -113.7304075     0.0000017     0.0000000000000097
     0.593774     0.0000004  -113.7304072     0.0000017     0.0000000000000097
     0.835147     0.0000135  -113.7304203     0.0000017     0.0000000000000095
     0.872393     0.0000164  -113.7304101     0.0000148     0.0000000000000097
                             Max Error =      0.0000148     0.0000000000000103
 Trajectory      1 has not met product criteria!


 -----------------------
 Summary of trajectories
 -----------------------

 Trajectory      1 did not finish in     10 cycles.
   Total time in trajectory      0.872 femtosec.


 TRJ-TRJ-TRJ-TRJ-TRJ-TRJ-TRJ-TRJ-TRJ-TRJ-TRJ-TRJ-TRJ-TRJ-TRJ-TRJ-TRJ-TRJ
 Leave Link  118 at Tue Dec  7 14:20:42 2021, MaxMem=   104857600 cpu:               0.0 elap:               0.0
 (Enter /Users/gdvg01/gaussiangdvJ05_pgi_18/gdv/l202.exe)
                          Input orientation:                          
 ---------------------------------------------------------------------
 Center     Atomic      Atomic             Coordinates (Angstroms)
 Number     Number       Type             X           Y           Z
 ---------------------------------------------------------------------
      1          6           0        0.000108    0.662467   -0.000000
      2          1           0        0.948235    1.162520    0.000000
      3          1           0       -0.947853    1.162832    0.000000
      4          8           0       -0.000105   -0.643526    0.000000
 ---------------------------------------------------------------------
                    Distance matrix (angstroms):
                    1          2          3          4
     1  C    0.000000
     2  H    1.071913   0.000000
     3  H    1.071912   1.896088   0.000000
     4  O    1.305993   2.039891   2.039891   0.000000
 Symmetry turned off by external request.
 Stoichiometry    CH2O
 Framework group  CS[SG(CH2O)]
 Deg. of freedom     5
 Full point group                 CS      NOp   2
 Rotational constants (GHZ):         278.9621472          34.5793718          30.7657366
 Leave Link  202 at Tue Dec  7 14:20:42 2021, MaxMem=   104857600 cpu:               0.0 elap:               0.0
 (Enter /Users/gdvg01/gaussiangdvJ05_pgi_18/gdv/l601.exe)
 Copying SCF densities to generalized density rwf, IOpCl= 0 IROHF=3.

 **********************************************************************

            Population analysis using the SCF Density.

 **********************************************************************

 Alpha  occ. eigenvalues --    0.00000   0.00000   0.00000   0.00000   0.00000
 Alpha  occ. eigenvalues --    0.00000   0.00000   0.00000
 Alpha virt. eigenvalues --    0.00000   0.00000   0.00000   0.00000   0.00000
 Alpha virt. eigenvalues --    0.00000   0.00000   0.00000   0.00000   0.00000
 Alpha virt. eigenvalues --    0.00000   0.00000   0.00000   0.00000   0.00000
 Alpha virt. eigenvalues --    0.00000   0.00000   0.00000   0.00000   0.00000
 Alpha virt. eigenvalues --    0.00000   0.00000   0.00000   0.00000   0.00000
 Alpha virt. eigenvalues --    0.00000
          Condensed to atoms (all electrons):
               1          2          3          4
     1  C    5.381592   0.372495   0.372495   0.264002
     2  H    0.372495   0.470280  -0.033058  -0.029500
     3  H    0.372495  -0.033058   0.470279  -0.029499
     4  O    0.264002  -0.029500  -0.029499   7.843980
 Mulliken charges:
               1
     1  C   -0.390583
     2  H    0.219783
     3  H    0.219783
     4  O   -0.048983
 Sum of Mulliken charges =  -0.00000
 Mulliken charges with hydrogens summed into heavy atoms:
               1
     1  C    0.048983
     4  O   -0.048983
 Electronic spatial extent (au):  <R**2>=             63.6222
 Charge=             -0.0000 electrons
 Dipole moment (field-independent basis, Debye):
    X=              0.0001    Y=              0.4872    Z=              0.0000  Tot=              0.4872
 Quadrupole moment (field-independent basis, Debye-Ang):
   XX=            -10.0794   YY=            -11.7328   ZZ=            -13.5809
   XY=             -0.0003   XZ=              0.0000   YZ=              0.0000
 Traceless Quadrupole moment (field-independent basis, Debye-Ang):
   XX=              1.7184   YY=              0.0649   ZZ=             -1.7832
   XY=             -0.0003   XZ=              0.0000   YZ=              0.0000
 Octapole moment (field-independent basis, Debye-Ang**2):
  XXX=             -0.0002  YYY=             -4.3113  ZZZ=              0.0000  XYY=             -0.0006
  XXY=             -0.4534  XXZ=              0.0000  XZZ=             -0.0005  YZZ=             -2.8781
  YYZ=              0.0000  XYZ=              0.0000
 Hexadecapole moment (field-independent basis, Debye-Ang**3):
 XXXX=            -14.6603 YYYY=            -47.3238 ZZZZ=            -12.9659 XXXY=             -0.0018
 XXXZ=              0.0000 YYYX=             -0.0036 YYYZ=              0.0000 ZZZX=              0.0000
 ZZZY=              0.0000 XXYY=             -8.4756 XXZZ=             -5.0224 YYZZ=            -11.3457
 XXYZ=              0.0000 YYXZ=              0.0000 ZZXY=             -0.0010
 N-N= 2.980302099099D+01 E-N=-3.267705637855D+02  KE= 1.130947944608D+02
 No NMR shielding tensors so no spin-rotation constants.
 Leave Link  601 at Tue Dec  7 14:20:42 2021, MaxMem=   104857600 cpu:               0.1 elap:               0.1
 (Enter /Users/gdvg01/gaussiangdvJ05_pgi_18/gdv/l716.exe)
 Dipole        = 3.14319814D-05 1.91674465D-01 5.74194878D-12
 FFCEig=     -8.435503576654     -6.641206182173     -0.000000000012      0.000000000011      0.000000000043
 FFCEig=      2.013989970971      2.408861209816     25.275270284594     39.127072942434     55.257662878376
 FFCEig=    229.566278515460    248.153059252047
 Full mass-weighted force constant matrix:
 Low frequencies --- -637.4408 -565.5979   -0.0008    0.0007    0.0014  311.4677
 Low frequencies ---  340.6357 1103.3981 1372.8497
 PFCEig=     -8.427006016278     25.264676107616     39.127072942434     55.257662878371    229.566278515458
 PFCEig=    248.149686052886
 ******    1 imaginary frequencies (negative Signs) ****** 
 Diagonal vibrational polarizability:
        0.0000000       0.0000000       0.0000000
 Harmonic frequencies (cm**-1), IR intensities (KM/Mole), Raman scattering
 activities (A**4/AMU), depolarization ratios for plane and unpolarized
 incident light, reduced masses (AMU), force constants (mDyne/A),
 and normal coordinates:
                      1                      2                      3
                      A                      A                      A
 Frequencies --   -637.1196              1103.1668              1372.8497
 Red. masses --      1.3133                 1.2832                 3.5142
 Frc consts  --      0.3141                 0.9201                 3.9023
 IR Inten    --      0.0000                 0.0000                 0.0000
  Atom  AN      X      Y      Z        X      Y      Z        X      Y      Z
     1   6    -0.00   0.00  -0.16     0.13  -0.00  -0.00    -0.00  -0.31   0.00
     2   1     0.00   0.00   0.70    -0.23   0.66   0.00     0.15  -0.62  -0.00
     3   1     0.00  -0.00   0.70    -0.23  -0.66   0.00    -0.15  -0.62  -0.00
     4   8     0.00   0.00   0.03    -0.07   0.00   0.00     0.00   0.31  -0.00
                      4                      5                      6
                      A                      A                      A
 Frequencies --   1631.4756              3325.3578              3457.3329
 Red. masses --      1.3280                 1.0422                 1.1213
 Frc consts  --      2.0826                 6.7904                 7.8969
 IR Inten    --      0.0000                 0.0000                 0.0000
  Atom  AN      X      Y      Z        X      Y      Z        X      Y      Z
     1   6    -0.00  -0.16   0.00    -0.00  -0.06  -0.00    -0.10   0.00   0.00
     2   1    -0.39   0.58   0.00     0.63   0.33   0.00     0.62   0.34  -0.00
     3   1     0.39   0.58   0.00    -0.63   0.33   0.00     0.62  -0.34  -0.00
     4   8     0.00   0.05  -0.00     0.00   0.00  -0.00    -0.00   0.00  -0.00

 -------------------
 - Thermochemistry -
 -------------------
 Temperature   298.150 Kelvin.  Pressure      1.00000 Atm.
 Atom     1 has atomic number  6 and mass  12.00000
 Atom     2 has atomic number  1 and mass   1.00783
 Atom     3 has atomic number  1 and mass   1.00783
 Atom     4 has atomic number  8 and mass  15.99491
 Molecular mass:    30.01056 amu.
 Principal axes and moments of inertia in atomic units:
                           1         2         3
     Eigenvalues --     6.46948  52.19127  58.66075
           X            0.00016   1.00000  -0.00000
           Y            1.00000  -0.00016  -0.00000
           Z            0.00000   0.00000   1.00000
 This molecule is an asymmetric top.
 Rotational symmetry number  1.
 Rotational temperatures (Kelvin)     13.38807     1.65955     1.47652
 Rotational constants (GHZ):         278.96215    34.57937    30.76574
    1 imaginary frequencies ignored.
 Zero-point vibrational energy      65137.8 (Joules/Mol)
                                   15.56830 (Kcal/Mol)
 Vibrational temperatures:   1587.21  1975.22  2347.33  4784.45  4974.33
          (Kelvin)
 
 Zero-point correction=                           0.024810 (Hartree/Particle)
 Thermal correction to Energy=                    0.027678
 Thermal correction to Enthalpy=                  0.028622
 Thermal correction to Gibbs Free Energy=         0.003035
 Sum of electronic and zero-point Energies=           -113.705601
 Sum of electronic and thermal Energies=              -113.702732
 Sum of electronic and thermal Enthalpies=            -113.701788
 Sum of electronic and thermal Free Energies=         -113.727375
 
                     E (Thermal)             CV                S
                      KCal/Mol        Cal/Mol-Kelvin    Cal/Mol-Kelvin
 Total                   17.368              6.402             53.852
 Electronic               0.000              0.000              0.000
 Translational            0.889              2.981             36.130
 Rotational               0.889              2.981             17.633
 Vibrational             15.591              0.440              0.088
                       Q            Log10(Q)             Ln(Q)
 Total Bot       0.401644D-01         -1.396159         -3.214775
 Total V=0       0.103629D+11         10.015483         23.061502
 Vib (Bot)       0.390142D-11        -11.408777        -26.269681
 Vib (V=0)       0.100662D+01          0.002865          0.006596
 Electronic      0.100000D+01          0.000000          0.000000
 Translational   0.646197D+07          6.810365         15.681445
 Rotational      0.159314D+04          3.202253          7.373460
 -------------------------------------------------------------------
 Center     Atomic                   Forces (Hartrees/Bohr)
 Number     Number              X              Y              Z
 -------------------------------------------------------------------
      1        6          -0.000004967   -0.032556509    0.000000000
      2        1          -0.012996750    0.001489482    0.000000030
      3        1           0.012996926    0.001485251   -0.000000030
      4        8           0.000004792    0.029581776   -0.000000000
 -------------------------------------------------------------------
 Cartesian Forces:  Max     0.032556509 RMS     0.013775788
 Force constants in Cartesian coordinates: 
                1             2             3             4             5 
      1  0.709702D+00
      2  0.514748D-05  0.746655D+00
      3  0.000000D+00  0.000000D+00 -0.291870D-01
      4 -0.318139D+00 -0.124123D+00  0.000000D+00  0.328921D+00
      5 -0.134004D+00 -0.127508D+00  0.000000D+00  0.144054D+00  0.141227D+00
      6  0.000000D+00  0.000000D+00  0.191879D-01  0.000000D+00  0.000000D+00
      7 -0.318055D+00  0.124186D+00  0.000000D+00 -0.144366D-01  0.155729D-01
      8  0.134067D+00 -0.127593D+00  0.000000D+00 -0.155638D-01  0.134570D-01
      9  0.000000D+00  0.000000D+00  0.191882D-01  0.000000D+00  0.000000D+00
     10 -0.735086D-01 -0.684374D-04  0.000000D+00  0.365494D-02 -0.256226D-01
     11 -0.683576D-04 -0.491554D+00  0.000000D+00 -0.436689D-02 -0.271759D-01
     12  0.000000D+00  0.000000D+00 -0.918911D-02  0.000000D+00  0.000000D+00
                6             7             8             9            10 
      6 -0.112591D-01
      7  0.000000D+00  0.328827D+00
      8  0.000000D+00 -0.144116D+00  0.141322D+00
      9  0.941737D-03  0.000000D+00  0.000000D+00 -0.112593D-01
     10  0.000000D+00  0.366482D-02  0.256125D-01  0.000000D+00  0.661889D-01
     11  0.000000D+00  0.435665D-02 -0.271858D-01  0.000000D+00  0.785988D-04
     12 -0.887059D-02  0.000000D+00  0.000000D+00 -0.887066D-02  0.000000D+00
               11            12 
     11  0.545915D+00
     12  0.000000D+00  0.269304D-01
 Leave Link  716 at Tue Dec  7 14:20:42 2021, MaxMem=   104857600 cpu:               0.0 elap:               0.0
 (Enter /Users/gdvg01/gaussiangdvJ05_pgi_18/gdv/l9999.exe)

 This type of calculation cannot be archived.


 ABALONE: AN EXPRESSION OF DISBELIEF.
 Job cpu time:       0 days  0 hours  0 minutes 22.6 seconds.
 Elapsed time:       0 days  0 hours  0 minutes 32.9 seconds.
 File lengths (MBytes):  RWF=     14 Int=      0 D2E=      0 Chk=      3 Scr=      1
 Normal termination of Gaussian DV at Tue Dec  7 14:20:42 2021.
