 Entering Gaussian System, Link 0=gdv
 Input=o2_freq.com
 Output=o2_freq.log
 Initial command:
 /home/don/gdv/gdv/l1.exe "/home/don/gdv/scratch/Gau-46069.inp" -scrdir="/home/don/gdv/scratch/"
 Entering Link 1 = /home/don/gdv/gdv/l1.exe PID=     46071.
  
 Copyright (c) 1988-2019, Gaussian, Inc.  All Rights Reserved.
  
 This is the private, development version of
 the Gaussian(R) DV system of programs. It is based on
 the Gaussian(R) 16 system (copyright 2016, Gaussian, Inc.),
 the Gaussian(R) 09 system (copyright 2009, Gaussian, Inc.),
 the Gaussian(R) 03 system (copyright 2003, Gaussian, Inc.),
 the Gaussian(R) 98 system (copyright 1998, Gaussian, Inc.),
 the Gaussian(R) 94 system (copyright 1995, Gaussian, Inc.),
 the Gaussian 92(TM) system (copyright 1992, Gaussian, Inc.),
 the Gaussian 90(TM) system (copyright 1990, Gaussian, Inc.),
 the Gaussian 88(TM) system (copyright 1988, Gaussian, Inc.),
 the Gaussian 86(TM) system (copyright 1986, Carnegie Mellon
 University), and the Gaussian 82(TM) system (copyright 1983,
 Carnegie Mellon University). Gaussian is a federally registered
 trademark of Gaussian, Inc.
  
 This software contains proprietary and confidential information,
 including trade secrets, belonging to Gaussian, Inc.
  
 This software is provided under written license and may be
 used, copied, transmitted, or stored only in accord with that
 written license.
  
 The following legend is applicable only to US Government
 contracts under FAR:
  
                    RESTRICTED RIGHTS LEGEND
  
 Use, reproduction and disclosure by the US Government is
 subject to restrictions as set forth in subparagraphs (a)
 and (c) of the Commercial Computer Software - Restricted
 Rights clause in FAR 52.227-19.
  
 Gaussian, Inc.
 340 Quinnipiac St., Bldg. 40, Wallingford CT 06492
  
  
 ---------------------------------------------------------------
 Warning -- This program may not be used in any manner that
 competes with the business of Gaussian, Inc. or will provide
 assistance to any competitor of Gaussian, Inc.  The licensee
 of this program is prohibited from giving any competitor of
 Gaussian, Inc. access to this program.  By using this program,
 the user acknowledges that Gaussian, Inc. is engaged in the
 business of creating and licensing software in the field of
 computational chemistry and represents and warrants to the
 licensee that it is not a competitor of Gaussian, Inc. and that
 it will not use this program in any manner prohibited above.
 ---------------------------------------------------------------
  

 Cite this work as:
 Gaussian Development Version, Revision J.05,
 M. J. Frisch, G. W. Trucks, H. B. Schlegel, G. E. Scuseria, 
 M. A. Robb, J. R. Cheeseman, G. Scalmani, V. Barone, 
 G. A. Petersson, H. Nakatsuji, X. Li, M. Caricato, A. V. Marenich, 
 J. Bloino, B. G. Janesko, R. Gomperts, B. Mennucci, H. P. Hratchian, 
 J. V. Ortiz, A. F. Izmaylov, J. L. Sonnenberg, D. Williams-Young, 
 F. Ding, F. Lipparini, F. Egidi, J. Goings, B. Peng, A. Petrone, 
 T. Henderson, D. Ranasinghe, V. G. Zakrzewski, J. Gao, N. Rega, 
 G. Zheng, W. Liang, M. Hada, M. Ehara, K. Toyota, R. Fukuda, 
 J. Hasegawa, M. Ishida, T. Nakajima, Y. Honda, O. Kitao, H. Nakai, 
 T. Vreven, K. Throssell, J. A. Montgomery, Jr., J. E. Peralta, 
 F. Ogliaro, M. J. Bearpark, J. J. Heyd, E. N. Brothers, K. N. Kudin, 
 V. N. Staroverov, T. A. Keith, R. Kobayashi, J. Normand, 
 K. Raghavachari, A. P. Rendell, J. C. Burant, S. S. Iyengar, 
 J. Tomasi, M. Cossi, J. M. Millam, M. Klene, C. Adamo, R. Cammi, 
 J. W. Ochterski, R. L. Martin, K. Morokuma, O. Farkas, 
 J. B. Foresman, and D. J. Fox, Gaussian, Inc., Wallingford CT, 2019.
 
 ******************************************
 Gaussian DV:  ES64L-GDVRevJ.05 25-Dec-2019
                20-Nov-2021 
 ******************************************
 -----------------------------------
 #P b3lyp/6-31g* freq=hpmodes nosymm
 -----------------------------------
 1/10=4,30=1,38=1/1,3;
 2/12=2,15=1,17=6,18=5,40=1/2;
 3/5=1,6=6,7=1,11=2,25=1,30=1,71=2,74=-5,140=1/1,2,3;
 4//1;
 5/5=2,38=5,98=1/2;
 8/6=4,10=90,11=11/1;
 11/6=1,8=1,9=11,15=111,16=1,31=1/1,2,10;
 10/6=1,31=1/2;
 6/7=2,8=2,9=2,10=2,28=1/1;
 7/8=11,10=1,25=1,30=1/1,2,3,16;
 1/10=4,30=1/3;
 99//99;
 Leave Link    1 at Sat Nov 20 23:19:29 2021, MaxMem=           0 cpu:               0.0 elap:               0.0
 (Enter /home/don/gdv/gdv/l101.exe)
 ---------
 Frequency
 ---------
 Symbolic Z-matrix:
 Charge =  0 Multiplicity = 1
 O                     0.        0.        0.60797 
 O                     0.        0.       -0.60797 
 
 ITRead=  0  0
 MicOpt= -1 -1
 NAtoms=      2 NQM=        2 NQMF=       0 NMMI=      0 NMMIF=      0
                NMic=       0 NMicF=      0.
                    Isotopes and Nuclear Properties:
 (Nuclear quadrupole moments (NQMom) in fm**2, nuclear magnetic moments (NMagM)
  in nuclear magnetons)

  Atom         1           2
 IAtWgt=          16          16
 AtmWgt=  15.9949146  15.9949146
 NucSpn=           0           0
 AtZEff=  -0.0000000  -0.0000000
 NQMom=    0.0000000   0.0000000
 NMagM=    0.0000000   0.0000000
 AtZNuc=   8.0000000   8.0000000
 Leave Link  101 at Sat Nov 20 23:19:29 2021, MaxMem=   104857600 cpu:               0.1 elap:               0.1
 (Enter /home/don/gdv/gdv/l103.exe)

 GradGradGradGradGradGradGradGradGradGradGradGradGradGradGradGradGradGrad
 Berny optimization.
 Initialization pass.
 Trust Radius=3.00D-01 FncErr=1.00D-07 GrdErr=1.00D-07 EigMax=2.50D+02 EigMin=1.00D-04
 Number of steps in this run=      2 maximum allowed number of steps=      2.
 GradGradGradGradGradGradGradGradGradGradGradGradGradGradGradGradGradGrad

 Leave Link  103 at Sat Nov 20 23:19:29 2021, MaxMem=   104857600 cpu:               0.0 elap:               0.0
 (Enter /home/don/gdv/gdv/l202.exe)
                          Input orientation:                          
 ---------------------------------------------------------------------
 Center     Atomic      Atomic             Coordinates (Angstroms)
 Number     Number       Type             X           Y           Z
 ---------------------------------------------------------------------
      1          8           0        0.000000    0.000000    0.607969
      2          8           0        0.000000    0.000000   -0.607969
 ---------------------------------------------------------------------
 Symmetry turned off by external request.
 Stoichiometry    O2
 Framework group  D*H[C*(O.O)]
 Deg. of freedom     1
 Full point group                 D*H     NOp   8
 Rotational constants (GHZ):           0.0000000          42.7407763          42.7407763
 Leave Link  202 at Sat Nov 20 23:19:29 2021, MaxMem=   104857600 cpu:               0.0 elap:               0.0
 (Enter /home/don/gdv/gdv/l301.exe)
 Standard basis: 6-31G(d) (6D, 7F)
 Ernie: Thresh=  0.10000D-02 Tol=  0.10000D-05 Strict=F.
    30 basis functions,    56 primitive gaussians,    30 cartesian basis functions
     8 alpha electrons        8 beta electrons
       nuclear repulsion energy        27.8528522827 Hartrees.
 IExCor=  402 DFT=T Ex+Corr=B3LYP ScaHFX=  0.200000
 ScaDFX=  0.800000  0.720000  1.000000  0.810000  0.000000  0.000000
 ScaDFX=  0.000000  0.000000  0.000000  0.000000  0.000000  0.000000
 IRadAn=      5 IRanWt=     -1 IRanGd=            0 ICorTp=0 IEmpDi=  4
 NAtoms=    2 NActive=    2 NUniq=    2 SFac= 1.00D+00 NAtFMM=   60 NAOKFM=F Big=F
 Integral buffers will be    131072 words long.
 Raffenetti 2 integral format.
 Two-electron integral symmetry is turned off.
 Leave Link  301 at Sat Nov 20 23:19:29 2021, MaxMem=   104857600 cpu:               0.0 elap:               0.0
 (Enter /home/don/gdv/gdv/l302.exe)
 NPDir=0 NMtPBC=     1 NCelOv=     1 NCel=       1 NClECP=     1 NCelD=      1
         NCelK=      1 NCelE2=     1 NClLst=     1 CellRange=     0.0.
 One-electron integrals computed using PRISM.
 NBasis=    30 RedAO= T EigKep=  7.22D-03  NBF=    30
 NBsUse=    30 1.00D-06 EigRej= -1.00D+00 NBFU=    30
 Precomputing XC quadrature grid using
 IXCGrd= 4 IRadAn=           5 IRanWt=          -1 IRanGd=           0 AccXCQ= 0.00D+00.
 Generated NRdTot=       0 NPtTot=       46400 NUsed=           0 NTot=          64
 NSgBfM=    30    30    30    30    30 MxSgAt=     2 MxSgA2=     2 SizInc=   0.000
 NMBTot=      392 MaxBatPerAtom=       80 MaxMicBPerAtom=      196.
 Leave Link  302 at Sat Nov 20 23:19:29 2021, MaxMem=   104857600 cpu:               0.1 elap:               0.1
 (Enter /home/don/gdv/gdv/l303.exe)
 DipDrv:  MaxL=1.
 Leave Link  303 at Sat Nov 20 23:19:29 2021, MaxMem=   104857600 cpu:               0.0 elap:               0.0
 (Enter /home/don/gdv/gdv/l401.exe)
 ExpMin= 2.70D-01 ExpMax= 5.48D+03 ExpMxC= 8.25D+02 IAcc=3 IRadAn=         5 AccDes= 0.00D+00
 Harris functional with IExCor=  402 and IRadAn=       5 diagonalized for initial guess.
 HarFok:  IExCor=  402 AccDes= 0.00D+00 IRadAn=         5 IDoV= 1 UseB2=F ITyADJ=14 ICtDFT=  3500011
 FoFCou: FMM=F IPFlag=           0 FMFlag=      100000 FMFlg1=           0
         NFxFlg=           0 DoJE=T BraDBF=F KetDBF=T FulRan=T
         wScrn=  0.000000 ICntrl=       500 IOpCl=  0 I1Cent=   200000004 NGrid=           0
         NMat0=    1 NMatS0=      1 NMatT0=    0 NMatD0=    1 NMtDS0=    0 NMtDT0=    0
 Symmetry not used in FoFCou.
 Harris En= -150.265796733479    
 JPrj=0 DoOrth=F DoCkMO=F.
 Leave Link  401 at Sat Nov 20 23:19:29 2021, MaxMem=   104857600 cpu:               0.1 elap:               0.1
 (Enter /home/don/gdv/gdv/l502.exe)
 Keep R1 ints in memory in canonical form, NReq=973478.
 FoFCou: FMM=F IPFlag=           0 FMFlag=           0 FMFlg1=           0
         NFxFlg=           0 DoJE=F BraDBF=F KetDBF=F FulRan=T
         wScrn=  0.000000 ICntrl=       600 IOpCl=  0 I1Cent=           0 NGrid=           0
         NMat0=    1 NMatS0=    465 NMatT0=    0 NMatD0=    1 NMtDS0=    0 NMtDT0=    0
 Symmetry not used in FoFCou.
 Two-electron integral symmetry not used.
 Closed shell SCF:
 Using DIIS extrapolation, IDIIS=  1040.
 NGot=   104857600 LenX=   104746861 LenY=   104745520
 Requested convergence on RMS density matrix=1.00D-08 within 128 cycles.
 Requested convergence on MAX density matrix=1.00D-06.
 Requested convergence on             energy=1.00D-06.
 No special actions if energy rises.
 Integral accuracy reduced to 1.0D-05 until final iterations.

 Cycle   1  Pass 0  IDiag  1:
 E= -150.250452333316    
 DIIS: error= 2.05D-02 at cycle   1 NSaved=   1.
 NSaved= 1 IEnMin= 1 EnMin= -150.250452333316     IErMin= 1 ErrMin= 2.05D-02
 ErrMax= 2.05D-02  0.00D+00 EMaxC= 1.00D-01 BMatC= 1.16D-02 BMatP= 1.16D-02
 IDIUse=3 WtCom= 7.95D-01 WtEn= 2.05D-01
 Coeff-Com:  0.100D+01
 Coeff-En:   0.100D+01
 Coeff:      0.100D+01
 Gap=     0.069 Goal=   None    Shift=    0.000
 GapD=    0.069 DampG=0.500 DampE=0.500 DampFc=0.2500 IDamp=-1.
 Damping current iteration by 2.50D-01
 RMSDP=2.56D-03 MaxDP=1.40D-02              OVMax= 3.33D-02

 Cycle   2  Pass 0  IDiag  1:
 E= -150.252567593597     Delta-E=       -0.002115260281 Rises=F Damp=T
 DIIS: error= 1.32D-02 at cycle   2 NSaved=   2.
 NSaved= 2 IEnMin= 2 EnMin= -150.252567593597     IErMin= 2 ErrMin= 1.32D-02
 ErrMax= 1.32D-02  0.00D+00 EMaxC= 1.00D-01 BMatC= 5.32D-03 BMatP= 1.16D-02
 IDIUse=3 WtCom= 8.68D-01 WtEn= 1.32D-01
 Coeff-Com: -0.202D+01 0.302D+01
 Coeff-En:   0.000D+00 0.100D+01
 Coeff:     -0.175D+01 0.275D+01
 Gap=     0.070 Goal=   None    Shift=    0.000
 RMSDP=1.24D-03 MaxDP=6.98D-03 DE=-2.12D-03 OVMax= 1.02D-02

 Cycle   3  Pass 0  IDiag  1:
 E= -150.257410256603     Delta-E=       -0.004842663005 Rises=F Damp=F
 DIIS: error= 9.82D-04 at cycle   3 NSaved=   3.
 NSaved= 3 IEnMin= 3 EnMin= -150.257410256603     IErMin= 3 ErrMin= 9.82D-04
 ErrMax= 9.82D-04  0.00D+00 EMaxC= 1.00D-01 BMatC= 2.23D-05 BMatP= 5.32D-03
 IDIUse=3 WtCom= 9.90D-01 WtEn= 9.82D-03
 Coeff-Com: -0.270D+00 0.397D+00 0.872D+00
 Coeff-En:   0.000D+00 0.000D+00 0.100D+01
 Coeff:     -0.267D+00 0.393D+00 0.874D+00
 Gap=     0.071 Goal=   None    Shift=    0.000
 RMSDP=1.82D-04 MaxDP=1.49D-03 DE=-4.84D-03 OVMax= 1.38D-03

 Cycle   4  Pass 0  IDiag  1:
 E= -150.257423090356     Delta-E=       -0.000012833754 Rises=F Damp=F
 DIIS: error= 4.61D-04 at cycle   4 NSaved=   4.
 NSaved= 4 IEnMin= 4 EnMin= -150.257423090356     IErMin= 4 ErrMin= 4.61D-04
 ErrMax= 4.61D-04  0.00D+00 EMaxC= 1.00D-01 BMatC= 4.94D-06 BMatP= 2.23D-05
 IDIUse=3 WtCom= 9.95D-01 WtEn= 4.61D-03
 Coeff-Com: -0.341D-02 0.318D-02 0.321D+00 0.680D+00
 Coeff-En:   0.000D+00 0.000D+00 0.666D-01 0.933D+00
 Coeff:     -0.340D-02 0.317D-02 0.319D+00 0.681D+00
 Gap=     0.071 Goal=   None    Shift=    0.000
 RMSDP=5.73D-05 MaxDP=4.65D-04 DE=-1.28D-05 OVMax= 4.31D-04

 Cycle   5  Pass 0  IDiag  1:
 E= -150.257426724216     Delta-E=       -0.000003633860 Rises=F Damp=F
 DIIS: error= 3.67D-06 at cycle   5 NSaved=   5.
 NSaved= 5 IEnMin= 5 EnMin= -150.257426724216     IErMin= 5 ErrMin= 3.67D-06
 ErrMax= 3.67D-06  0.00D+00 EMaxC= 1.00D-01 BMatC= 2.83D-10 BMatP= 4.94D-06
 IDIUse=1 WtCom= 1.00D+00 WtEn= 0.00D+00
 Coeff-Com:  0.339D-03-0.495D-03-0.175D-01-0.308D-01 0.105D+01
 Coeff:      0.339D-03-0.495D-03-0.175D-01-0.308D-01 0.105D+01
 Gap=     0.071 Goal=   None    Shift=    0.000
 RMSDP=5.70D-07 MaxDP=4.20D-06 DE=-3.63D-06 OVMax= 5.27D-06

 Initial convergence to 1.0D-05 achieved.  Increase integral accuracy.
 Cycle   6  Pass 1  IDiag  1:
 E= -150.257424344342     Delta-E=        0.000002379874 Rises=F Damp=F
 DIIS: error= 1.35D-06 at cycle   1 NSaved=   1.
 NSaved= 1 IEnMin= 1 EnMin= -150.257424344342     IErMin= 1 ErrMin= 1.35D-06
 ErrMax= 1.35D-06  0.00D+00 EMaxC= 1.00D-01 BMatC= 4.31D-11 BMatP= 4.31D-11
 IDIUse=1 WtCom= 1.00D+00 WtEn= 0.00D+00
 Coeff-Com:  0.100D+01
 Coeff:      0.100D+01
 Gap=     0.071 Goal=   None    Shift=    0.000
 RMSDP=5.70D-07 MaxDP=4.20D-06 DE= 2.38D-06 OVMax= 2.13D-06

 Cycle   7  Pass 1  IDiag  1:
 E= -150.257424344379     Delta-E=       -0.000000000038 Rises=F Damp=F
 DIIS: error= 4.25D-07 at cycle   2 NSaved=   2.
 NSaved= 2 IEnMin= 2 EnMin= -150.257424344379     IErMin= 2 ErrMin= 4.25D-07
 ErrMax= 4.25D-07  0.00D+00 EMaxC= 1.00D-01 BMatC= 3.88D-12 BMatP= 4.31D-11
 IDIUse=1 WtCom= 1.00D+00 WtEn= 0.00D+00
 Coeff-Com:  0.149D+00 0.851D+00
 Coeff:      0.149D+00 0.851D+00
 Gap=     0.071 Goal=   None    Shift=    0.000
 RMSDP=6.79D-08 MaxDP=5.69D-07 DE=-3.77D-11 OVMax= 5.72D-07

 Cycle   8  Pass 1  IDiag  1:
 E= -150.257424344382     Delta-E=       -0.000000000003 Rises=F Damp=F
 DIIS: error= 1.64D-07 at cycle   3 NSaved=   3.
 NSaved= 3 IEnMin= 3 EnMin= -150.257424344382     IErMin= 3 ErrMin= 1.64D-07
 ErrMax= 1.64D-07  0.00D+00 EMaxC= 1.00D-01 BMatC= 7.57D-13 BMatP= 3.88D-12
 IDIUse=1 WtCom= 1.00D+00 WtEn= 0.00D+00
 Coeff-Com: -0.578D-02 0.297D+00 0.709D+00
 Coeff:     -0.578D-02 0.297D+00 0.709D+00
 Gap=     0.071 Goal=   None    Shift=    0.000
 RMSDP=2.46D-08 MaxDP=2.07D-07 DE=-2.50D-12 OVMax= 2.10D-07

 Cycle   9  Pass 1  IDiag  1:
 E= -150.257424344382     Delta-E=       -0.000000000000 Rises=F Damp=F
 DIIS: error= 2.37D-08 at cycle   4 NSaved=   4.
 NSaved= 4 IEnMin= 4 EnMin= -150.257424344382     IErMin= 4 ErrMin= 2.37D-08
 ErrMax= 2.37D-08  0.00D+00 EMaxC= 1.00D-01 BMatC= 1.13D-14 BMatP= 7.57D-13
 IDIUse=1 WtCom= 1.00D+00 WtEn= 0.00D+00
 Coeff-Com: -0.516D-02 0.757D-01 0.220D+00 0.709D+00
 Coeff:     -0.516D-02 0.757D-01 0.220D+00 0.709D+00
 Gap=     0.071 Goal=   None    Shift=    0.000
 RMSDP=2.79D-09 MaxDP=1.71D-08 DE=-4.55D-13 OVMax= 3.87D-08

 SCF Done:  E(RB3LYP) =  -150.257424344     A.U. after    9 cycles
            NFock=  9  Conv=0.28D-08     -V/T= 2.0083
 KE= 1.490171319590D+02 PE=-4.103822834932D+02 EE= 8.325487490720D+01
 Leave Link  502 at Sat Nov 20 23:19:30 2021, MaxMem=   104857600 cpu:               0.4 elap:               0.4
 (Enter /home/don/gdv/gdv/l801.exe)
 DoSCS=F DFT=T ScalE2(SS,OS)=  1.000000  1.000000
 Range of M.O.s used for correlation:     1    30
 NBasis=    30 NAE=     8 NBE=     8 NFC=     0 NFV=     0
 NROrb=     30 NOA=     8 NOB=     8 NVA=    22 NVB=    22

 **** Warning!!: The smallest alpha delta epsilon is  0.70892235D-01

 Leave Link  801 at Sat Nov 20 23:19:30 2021, MaxMem=   104857600 cpu:               0.0 elap:               0.0
 (Enter /home/don/gdv/gdv/l1101.exe)
 Using compressed storage, NAtomX=     2.
 Will process      3 centers per pass.
 Leave Link 1101 at Sat Nov 20 23:19:30 2021, MaxMem=   104857600 cpu:               0.0 elap:               0.0
 (Enter /home/don/gdv/gdv/l1102.exe)
 Symmetrizing basis deriv contribution to polar:
 IMax=3 JMax=2 DiffMx= 0.00D+00
 Leave Link 1102 at Sat Nov 20 23:19:30 2021, MaxMem=   104857600 cpu:               0.0 elap:               0.0
 (Enter /home/don/gdv/gdv/l1110.exe)
 Forming Gx(P) for the SCF density, NAtomX=     2.
 Integral derivatives from FoFJK, PRISM(SPDF).
 Do as many integral derivatives as possible in FoFJK.
 G2DrvN: MDV=     104857252.
 G2DrvN: will do     3 centers at a time, making    1 passes.
 Calling FoFCou, ICntrl=  3107 FMM=F I1Cent=   0 AccDes= 0.00D+00.
 FoFJK:  IHMeth= 1 ICntrl=    3107 DoSepK=F KAlg= 0 I1Cent=           0 FoldK=F
 IRaf=         0 NMat=       1 IRICut=       1 DoRegI=T DoRafI=F ISym2E= 0 IDoP0=0 IntGTp=1.
 FoFCou: FMM=F IPFlag=           0 FMFlag=      100000 FMFlg1=           0
         NFxFlg=           0 DoJE=F BraDBF=F KetDBF=F FulRan=T
         wScrn=  0.000000 ICntrl=      3107 IOpCl=  0 I1Cent=           0 NGrid=           0
         NMat0=    1 NMatS0=      1 NMatT0=    0 NMatD0=    1 NMtDS0=    0 NMtDT0=    0
 Symmetry not used in FoFCou.
 End of G2Drv F.D. properties file    721 does not exist.
 End of G2Drv F.D. properties file    722 does not exist.
 End of G2Drv F.D. properties file    788 does not exist.
 Leave Link 1110 at Sat Nov 20 23:19:30 2021, MaxMem=   104857600 cpu:               0.3 elap:               0.3
 (Enter /home/don/gdv/gdv/l1002.exe)
 Minotr:  Closed shell wavefunction.
          IDoAtm=11
          Direct CPHF calculation.
          Differentiating once with respect to electric field.
                with respect to dipole field.
          Differentiating once with respect to nuclear coordinates.
          Requested convergence is 1.0D-08 RMS, and 1.0D-07 maximum.
          Secondary convergence is 1.0D-12 RMS, and 1.0D-12 maximum.
          NewPWx=T KeepS1=F KeepF1=F KeepIn=T MapXYZ=F SortEE=F KeepMc=T.
          568 words used for storage of precomputed grid.
 Keep R1 ints in memory in canonical form, NReq=972249.
 FoFCou: FMM=F IPFlag=           0 FMFlag=           0 FMFlg1=           0
         NFxFlg=           0 DoJE=F BraDBF=F KetDBF=F FulRan=T
         wScrn=  0.000000 ICntrl=       600 IOpCl=  0 I1Cent=           0 NGrid=           0
         NMat0=    1 NMatS0=    465 NMatT0=    0 NMatD0=    1 NMtDS0=    0 NMtDT0=    0
 Symmetry not used in FoFCou.
 Two-electron integral symmetry not used.
          MDV=     104857600 using IRadAn=       3.
          Solving linear equations simultaneously, MaxMat=       0.
          There are     9 degrees of freedom in the 1st order CPHF.  IDoFFX=6 NUNeed=     3.
      6 vectors produced by pass  0 Test12= 1.96D-15 1.11D-08 XBig12= 1.43D+01 3.42D+00.
 AX will form     6 AO Fock derivatives at one time.
      6 vectors produced by pass  1 Test12= 1.96D-15 1.11D-08 XBig12= 8.87D+00 1.53D+00.
      6 vectors produced by pass  2 Test12= 1.96D-15 1.11D-08 XBig12= 8.44D-02 1.23D-01.
      6 vectors produced by pass  3 Test12= 1.96D-15 1.11D-08 XBig12= 6.10D-04 1.52D-02.
      6 vectors produced by pass  4 Test12= 1.96D-15 1.11D-08 XBig12= 5.94D-06 1.83D-03.
      6 vectors produced by pass  5 Test12= 1.96D-15 1.11D-08 XBig12= 1.21D-08 4.79D-05.
      2 vectors produced by pass  6 Test12= 1.96D-15 1.11D-08 XBig12= 9.39D-12 1.22D-06.
      2 vectors produced by pass  7 Test12= 1.96D-15 1.11D-08 XBig12= 1.41D-14 4.82D-08.
 InvSVY:  IOpt=1 It=  1 EMax= 4.44D-16
 Solved reduced A of dimension    40 with     6 vectors.
 FullF1:  Do perturbations      1 to       3.
 Isotropic polarizability for W=    0.000000        6.53 Bohr**3.
 End of Minotr F.D. properties file    721 does not exist.
 End of Minotr F.D. properties file    722 does not exist.
 End of Minotr F.D. properties file    788 does not exist.
 Leave Link 1002 at Sat Nov 20 23:19:31 2021, MaxMem=   104857600 cpu:               0.6 elap:               0.6
 (Enter /home/don/gdv/gdv/l601.exe)
 Copying SCF densities to generalized density rwf, IOpCl= 0 IROHF=0.

 **********************************************************************

            Population analysis using the SCF Density.

 **********************************************************************

 Alpha  occ. eigenvalues --  -19.30735 -19.30711  -1.27670  -0.79819  -0.53152
 Alpha  occ. eigenvalues --   -0.51529  -0.50757  -0.25015
 Alpha virt. eigenvalues --   -0.17926   0.21211   0.67695   0.71503   0.79234
 Alpha virt. eigenvalues --    0.80967   0.86022   0.91525   0.92700   1.28459
 Alpha virt. eigenvalues --    1.48361   1.51447   1.53776   1.53951   1.92371
 Alpha virt. eigenvalues --    1.92561   2.41020   2.53687   2.56710   2.80548
 Alpha virt. eigenvalues --    3.17185   3.50549
          Condensed to atoms (all electrons):
               1          2
     1  O    7.901693   0.098307
     2  O    0.098307   7.901693
 Mulliken charges:
               1
     1  O   -0.000000
     2  O    0.000000
 Sum of Mulliken charges =   0.00000
 Mulliken charges with hydrogens summed into heavy atoms:
               1
     1  O   -0.000000
     2  O    0.000000
 APT charges:
               1
     1  O    0.000000
     2  O   -0.000000
 Sum of APT charges =   0.00000
 APT charges with hydrogens summed into heavy atoms:
               1
     1  O    0.000000
     2  O   -0.000000
 Electronic spatial extent (au):  <R**2>=             43.4105
 Charge=              0.0000 electrons
 Dipole moment (field-independent basis, Debye):
    X=             -0.0000    Y=             -0.0000    Z=             -0.0000  Tot=              0.0000
 Quadrupole moment (field-independent basis, Debye-Ang):
   XX=             -9.3989   YY=            -10.2849   ZZ=            -10.2986
   XY=             -0.7454   XZ=             -0.0000   YZ=              0.0000
 Traceless Quadrupole moment (field-independent basis, Debye-Ang):
   XX=              0.5952   YY=             -0.2907   ZZ=             -0.3045
   XY=             -0.7454   XZ=             -0.0000   YZ=              0.0000
 Octapole moment (field-independent basis, Debye-Ang**2):
  XXX=             -0.0000  YYY=             -0.0000  ZZZ=             -0.0000  XYY=             -0.0000
  XXY=             -0.0000  XXZ=             -0.0000  XZZ=             -0.0000  YZZ=             -0.0000
  YYZ=             -0.0000  XYZ=              0.0000
 Hexadecapole moment (field-independent basis, Debye-Ang**3):
 XXXX=             -6.0446 YYYY=             -6.8768 ZZZZ=            -27.8480 XXXY=             -0.3501
 XXXZ=             -0.0000 YYYX=             -0.3501 YYYZ=             -0.0000 ZZZX=              0.0000
 ZZZY=              0.0000 XXYY=             -2.1536 XXZZ=             -5.6401 YYZZ=             -6.2985
 XXYZ=             -0.0000 YYXZ=              0.0000 ZZXY=             -0.5539
 N-N= 2.785285228267D+01 E-N=-4.103822829034D+02  KE= 1.490171319590D+02
  Exact polarizability:       4.283      -0.295       3.933       0.000       0.000      11.364
 Approx polarizability:       5.877      -0.836       4.884       0.000       0.000      24.731
 No NMR shielding tensors so no spin-rotation constants.
 Leave Link  601 at Sat Nov 20 23:19:31 2021, MaxMem=   104857600 cpu:               0.0 elap:               0.0
 (Enter /home/don/gdv/gdv/l701.exe)
 ... and contract with generalized density number  0.
 Compute integral second derivatives.
 Leave Link  701 at Sat Nov 20 23:19:31 2021, MaxMem=   104857600 cpu:               0.1 elap:               0.1
 (Enter /home/don/gdv/gdv/l702.exe)
 L702 exits ... SP integral derivatives will be done elsewhere.
 Leave Link  702 at Sat Nov 20 23:19:31 2021, MaxMem=   104857600 cpu:               0.0 elap:               0.0
 (Enter /home/don/gdv/gdv/l703.exe)
 Integral derivatives from FoFJK, PRISM(SPDF).
 Compute integral second derivatives, UseDBF=F ICtDFT=           0.
 Calling FoFJK, ICntrl=    100127 FMM=F ISym2X=0 I1Cent= 0 IOpClX= 0 NMat=1 NMatS=1 NMatT=0.
 FoFJK:  IHMeth= 1 ICntrl=  100127 DoSepK=F KAlg= 0 I1Cent=           0 FoldK=F
 IRaf=         0 NMat=       1 IRICut=       1 DoRegI=T DoRafI=F ISym2E= 0 IDoP0=0 IntGTp=1.
 FoFCou: FMM=F IPFlag=           0 FMFlag=      100000 FMFlg1=         800
         NFxFlg=           0 DoJE=F BraDBF=F KetDBF=F FulRan=T
         wScrn=  0.000000 ICntrl=    100127 IOpCl=  0 I1Cent=           0 NGrid=           0
         NMat0=    1 NMatS0=      1 NMatT0=    0 NMatD0=    1 NMtDS0=    0 NMtDT0=    0
 Symmetry not used in FoFCou.
 Leave Link  703 at Sat Nov 20 23:19:32 2021, MaxMem=   104857600 cpu:               0.5 elap:               0.5
 (Enter /home/don/gdv/gdv/l716.exe)
 Dipole        =-3.92352972D-16-9.38487384D-16-3.99364986D-11
 Polarizability= 4.28319484D+00-2.94844456D-01 3.93275261D+00
                 8.48065284D-16 2.11817209D-15 1.13636622D+01
 Full mass-weighted force constant matrix:
 Low frequencies ---   -3.8582   -2.2045   -0.0014   -0.0013    0.0010 1643.2361
 Diagonal vibrational polarizability:
        0.0000000       0.0000000       0.0000000
 Harmonic frequencies (cm**-1), IR intensities (KM/Mole), Raman scattering
 activities (A**4/AMU), depolarization ratios for plane and unpolarized
 incident light, reduced masses (AMU), force constants (mDyne/A),
 and normal coordinates:
                           1
                           A
       Frequencies ---  1643.2361
    Reduced masses ---    15.9949
   Force constants ---    25.4467
    IR Intensities ---     0.0000
 Coord Atom Element:
   1     1     8          0.00000
   2     1     8          0.00000
   3     1     8          0.70711
   1     2     8          0.00000
   2     2     8          0.00000
   3     2     8         -0.70711
 Harmonic frequencies (cm**-1), IR intensities (KM/Mole), Raman scattering
 activities (A**4/AMU), depolarization ratios for plane and unpolarized
 incident light, reduced masses (AMU), force constants (mDyne/A),
 and normal coordinates:
                      1
                      A
 Frequencies --   1643.2361
 Red. masses --     15.9949
 Frc consts  --     25.4467
 IR Inten    --      0.0000
  Atom  AN      X      Y      Z
     1   8     0.00   0.00   0.71
     2   8     0.00   0.00  -0.71

 -------------------
 - Thermochemistry -
 -------------------
 Temperature   298.150 Kelvin.  Pressure      1.00000 Atm.
 Atom     1 has atomic number  8 and mass  15.99491
 Atom     2 has atomic number  8 and mass  15.99491
 Molecular mass:    31.98983 amu.
 Principal axes and moments of inertia in atomic units:
                           1         2         3
     Eigenvalues --     0.00000  42.22528  42.22528
           X            0.00000  -0.00000   1.00000
           Y            0.00000   1.00000   0.00000
           Z            1.00000   0.00000   0.00000
 This molecule is a prolate symmetric top.
 Rotational symmetry number  2.
 Rotational temperature (Kelvin)      2.05123
 Rotational constant (GHZ):          42.740776
 Zero-point vibrational energy       9828.7 (Joules/Mol)
                                    2.34912 (Kcal/Mol)
 Vibrational temperatures:   2364.25
          (Kelvin)
 
 Zero-point correction=                           0.003744 (Hartree/Particle)
 Thermal correction to Energy=                    0.006107
 Thermal correction to Enthalpy=                  0.007051
 Thermal correction to Gibbs Free Energy=        -0.015200
 Sum of electronic and zero-point Energies=           -150.253681
 Sum of electronic and thermal Energies=              -150.251318
 Sum of electronic and thermal Enthalpies=            -150.250373
 Sum of electronic and thermal Free Energies=         -150.272625
 
                     E (Thermal)             CV                S
                      KCal/Mol        Cal/Mol-Kelvin    Cal/Mol-Kelvin
 Total                    3.832              5.013             46.831
 Electronic               0.000              0.000              0.000
 Translational            0.889              2.981             36.321
 Rotational               0.592              1.987             10.504
 Vibrational              2.351              0.045              0.006
                       Q            Log10(Q)             Ln(Q)
 Total Bot       0.980839D+07          6.991598         16.098749
 Total V=0       0.517032D+09          8.713518         20.063616
 Vib (Bot)       0.189774D-01         -1.721764         -3.964507
 Vib (V=0)       0.100036D+01          0.000156          0.000360
 Electronic      0.100000D+01          0.000000          0.000000
 Translational   0.711167D+07          6.851972         15.777248
 Rotational      0.726758D+02          1.861390          4.286008
 -------------------------------------------------------------------
 Center     Atomic                   Forces (Hartrees/Bohr)
 Number     Number              X              Y              Z
 -------------------------------------------------------------------
      1        8           0.000000000    0.000000000    0.000001093
      2        8          -0.000000000   -0.000000000   -0.000001093
 -------------------------------------------------------------------
 Cartesian Forces:  Max     0.000001093 RMS     0.000000631
 Z-matrix is all fixed cartesians, so copy forces.
 Force constants in Cartesian coordinates: 
                1             2             3             4             5 
      1 -0.331928D-05
      2  0.148053D-05 -0.265677D-05
      3  0.000000D+00  0.000000D+00  0.817228D+00
      4  0.331928D-05 -0.148053D-05  0.000000D+00 -0.331928D-05
      5 -0.148053D-05  0.265677D-05  0.000000D+00  0.148053D-05 -0.265677D-05
      6  0.000000D+00  0.000000D+00 -0.817228D+00  0.000000D+00  0.000000D+00
                6 
      6  0.817228D+00
 Leave Link  716 at Sat Nov 20 23:19:32 2021, MaxMem=   104857600 cpu:               0.0 elap:               0.0
 (Enter /home/don/gdv/gdv/l103.exe)

 GradGradGradGradGradGradGradGradGradGradGradGradGradGradGradGradGradGrad
 Berny optimization.
 Search for a local minimum.
 Step number   1 out of a maximum of    2
 All quantities printed in internal units (Hartrees-Bohrs-Radians)
 Second derivative matrix not updated -- analytic derivatives used.
 The second derivative matrix:
                          X1        Y1        Z1        X2        Y2
           X1          -0.00000
           Y1           0.00000  -0.00000
           Z1          -0.00000  -0.00000   0.81723
           X2           0.00000  -0.00000   0.00000  -0.00000
           Y2          -0.00000   0.00000   0.00000   0.00000  -0.00000
           Z2           0.00000   0.00000  -0.81723  -0.00000  -0.00000
                          Z2
           Z2           0.81723
 ITU=  0
     Eigenvalues ---    1.63446
 Angle between quadratic step and forces=   0.00 degrees.
 Linear search not attempted -- first point.
 B after Tr=     0.000000    0.000000    0.000000
         Rot=    1.000000    0.000000    0.000000    0.000000 Ang=   0.00 deg.
 Variable       Old X    -DE/DX   Delta X   Delta X   Delta X     New X
                                 (Linear)    (Quad)   (Total)
    X1        0.00000   0.00000   0.00000   0.00000   0.00000   0.00000
    Y1        0.00000   0.00000   0.00000   0.00000   0.00000   0.00000
    Z1        1.14889   0.00000   0.00000   0.00000   0.00000   1.14890
    X2        0.00000  -0.00000   0.00000   0.00000   0.00000   0.00000
    Y2        0.00000  -0.00000   0.00000   0.00000   0.00000   0.00000
    Z2       -1.14889  -0.00000   0.00000  -0.00000  -0.00000  -1.14890
         Item               Value     Threshold  Converged?
 Maximum Force            0.000001     0.000450     YES
 RMS     Force            0.000001     0.000300     YES
 Maximum Displacement     0.000001     0.001800     YES
 RMS     Displacement     0.000000     0.001200     YES
 Predicted change in Energy=-7.304300D-13
 Optimization completed.
    -- Stationary point found.
 GradGradGradGradGradGradGradGradGradGradGradGradGradGradGradGradGradGrad

 Leave Link  103 at Sat Nov 20 23:19:32 2021, MaxMem=   104857600 cpu:               0.0 elap:               0.0
 (Enter /home/don/gdv/gdv/l9999.exe)
 Dipole is zero, so no output in dipole orientation.

 ----------------------------------------------------------------------

 Electric dipole moment (input orientation):
 (Debye = 10**-18 statcoulomb cm , SI units = C m)
                  (au)            (Debye)         (10**-30 SI)
   Tot        0.000000D+00      0.000000D+00      0.000000D+00
   x          0.000000D+00      0.000000D+00      0.000000D+00
   y          0.000000D+00      0.000000D+00      0.000000D+00
   z          0.000000D+00      0.000000D+00      0.000000D+00

 Dipole polarizability, Alpha (input orientation).
 (esu units = cm**3 , SI units = C**2 m**2 J**-1)
 Alpha(0;0):
               (au)            (10**-24 esu)      (10**-40 SI)
   iso        0.652654D+01      0.967133D+00      0.107608D+01
   aniso      0.727997D+01      0.107878D+01      0.120030D+01
   xx         0.428319D+01      0.634704D+00      0.706203D+00
   yx        -0.294844D+00     -0.436914D-01     -0.486133D-01
   yy         0.393275D+01      0.582774D+00      0.648423D+00
   zx         0.000000D+00      0.000000D+00      0.000000D+00
   zy         0.000000D+00      0.000000D+00      0.000000D+00
   zz         0.113637D+02      0.168392D+01      0.187361D+01

 ----------------------------------------------------------------------
 Unable to Open any file for archive entry.
 1\1\GINC-DON-IC-DELL\Freq\RB3LYP\6-31G(d)\O2\DON\20-Nov-2021\0\\#P b3l
 yp/6-31g* freq=hpmodes nosymm\\Frequency\\0,1\O,0.,0.,0.607969\O,0.,0.
 ,-0.607969\\Version=ES64L-GDVRevJ.05\HF=-150.2574243\RMSD=2.791e-09\RM
 SF=6.308e-07\ZeroPoint=0.0037436\Thermal=0.0061067\ETot=-150.2513176\H
 Tot=-150.2503734\GTot=-150.2726245\Dipole=0.,0.,0.\DipoleDeriv=0.,0.,0
 .,0.,0.,0.,0.,0.,0.,0.,0.,0.,0.,0.,0.,0.,0.,0.\Polar=4.2831948,-0.2948
 445,3.9327526,0.,0.,11.3636622\Quadrupole=0.4425286,-0.2161508,-0.2263
 778,-0.5541751,0.,0.\PG=D*H [C*(O1.O1)]\NImag=0\\-0.00000332,0.0000014
 8,-0.00000266,0.,0.,0.81722816,0.00000332,-0.00000148,0.,-0.00000332,-
 0.00000148,0.00000266,0.,0.00000148,-0.00000266,0.,0.,-0.81722816,0.,0
 .,0.81722816\\0.,0.,-0.00000109,0.,0.,0.00000109\\\@
 The archive entry for this job was punched.


 WHAT, THEN, IS TIME?  IF NO ONE ASKS ME, I KNOW WHAT IT IS.
 IF I WISH TO EXPLAIN WHAT IT IS TO HIM WHO ASKS ME, I DO NOT KNOW.
                                   -- ST. AUGUSTINE (FIFTH CENTURY)
 Job cpu time:       0 days  0 hours  0 minutes  2.5 seconds.
 Elapsed time:       0 days  0 hours  0 minutes  2.4 seconds.
 File lengths (MBytes):  RWF=      6 Int=      0 D2E=      0 Chk=      1 Scr=      1
 Normal termination of Gaussian DV at Sat Nov 20 23:19:32 2021.
