 Entering Gaussian System, Link 0=gdv
 Input=gwp1_V1_dd_data_nm.com
 Output=gwp1_V1_dd_data_nm.log
 Initial command:
 /rds/general/project/gaussian-development/live/home/gaussiangdvJ05_pgi_18/gdv/l1.exe "/var/tmp/pbs.3351532.pbs/Gau-1765552.inp" -scrdir="/var/tmp/pbs.3351532.pbs/"
 Entering Link 1 = /rds/general/project/gaussian-development/live/home/gaussiangdvJ05_pgi_18/gdv/l1.exe PID=   1765570.
  
 Copyright (c) 1988-2019, Gaussian, Inc.  All Rights Reserved.
  
 This is the private, development version of
 the Gaussian(R) DV system of programs. It is based on
 the Gaussian(R) 16 system (copyright 2016, Gaussian, Inc.),
 the Gaussian(R) 09 system (copyright 2009, Gaussian, Inc.),
 the Gaussian(R) 03 system (copyright 2003, Gaussian, Inc.),
 the Gaussian(R) 98 system (copyright 1998, Gaussian, Inc.),
 the Gaussian(R) 94 system (copyright 1995, Gaussian, Inc.),
 the Gaussian 92(TM) system (copyright 1992, Gaussian, Inc.),
 the Gaussian 90(TM) system (copyright 1990, Gaussian, Inc.),
 the Gaussian 88(TM) system (copyright 1988, Gaussian, Inc.),
 the Gaussian 86(TM) system (copyright 1986, Carnegie Mellon
 University), and the Gaussian 82(TM) system (copyright 1983,
 Carnegie Mellon University). Gaussian is a federally registered
 trademark of Gaussian, Inc.
  
 This software contains proprietary and confidential information,
 including trade secrets, belonging to Gaussian, Inc.
  
 This software is provided under written license and may be
 used, copied, transmitted, or stored only in accord with that
 written license.
  
 The following legend is applicable only to US Government
 contracts under FAR:
  
                    RESTRICTED RIGHTS LEGEND
  
 Use, reproduction and disclosure by the US Government is
 subject to restrictions as set forth in subparagraphs (a)
 and (c) of the Commercial Computer Software - Restricted
 Rights clause in FAR 52.227-19.
  
 Gaussian, Inc.
 340 Quinnipiac St., Bldg. 40, Wallingford CT 06492
  
  
 ---------------------------------------------------------------
 Warning -- This program may not be used in any manner that
 competes with the business of Gaussian, Inc. or will provide
 assistance to any competitor of Gaussian, Inc.  The licensee
 of this program is prohibited from giving any competitor of
 Gaussian, Inc. access to this program.  By using this program,
 the user acknowledges that Gaussian, Inc. is engaged in the
 business of creating and licensing software in the field of
 computational chemistry and represents and warrants to the
 licensee that it is not a competitor of Gaussian, Inc. and that
 it will not use this program in any manner prohibited above.
 ---------------------------------------------------------------
  

 Cite this work as:
 Gaussian Development Version, Revision J.05,
 M. J. Frisch, G. W. Trucks, H. B. Schlegel, G. E. Scuseria, 
 M. A. Robb, J. R. Cheeseman, G. Scalmani, V. Barone, 
 G. A. Petersson, H. Nakatsuji, X. Li, M. Caricato, A. V. Marenich, 
 J. Bloino, B. G. Janesko, R. Gomperts, B. Mennucci, H. P. Hratchian, 
 J. V. Ortiz, A. F. Izmaylov, J. L. Sonnenberg, D. Williams-Young, 
 F. Ding, F. Lipparini, F. Egidi, J. Goings, B. Peng, A. Petrone, 
 T. Henderson, D. Ranasinghe, V. G. Zakrzewski, J. Gao, N. Rega, 
 G. Zheng, W. Liang, M. Hada, M. Ehara, K. Toyota, R. Fukuda, 
 J. Hasegawa, M. Ishida, T. Nakajima, Y. Honda, O. Kitao, H. Nakai, 
 T. Vreven, K. Throssell, J. A. Montgomery, Jr., J. E. Peralta, 
 F. Ogliaro, M. J. Bearpark, J. J. Heyd, E. N. Brothers, K. N. Kudin, 
 V. N. Staroverov, T. A. Keith, R. Kobayashi, J. Normand, 
 K. Raghavachari, A. P. Rendell, J. C. Burant, S. S. Iyengar, 
 J. Tomasi, M. Cossi, J. M. Millam, M. Klene, C. Adamo, R. Cammi, 
 J. W. Ochterski, R. L. Martin, K. Morokuma, O. Farkas, 
 J. B. Foresman, and D. J. Fox, Gaussian, Inc., Wallingford CT, 2019.
 
 ******************************************
 Gaussian DV:  EM64L-GDVRevJ.05 25-Dec-2019
                14-Apr-2021 
 ******************************************
 %chk=/rds/general/ephemeral/user/dd2120/ephemeral/3351532.pbs/dd_data_nm/gwp1_V1
 /gwp1_V1_dd_data_nm.chk
 %mem=3500mb
 %nprocshared=1
 Will use up to    1 processors via shared memory.
 %subst l1003 /rds/general/user/dd2120/projects/gaussian-development/live/home/ga
 ussiangdvJ05_pgi_18/gdvtest_v13_j05_cx1/l1003
 %subst l510 /rds/general/user/dd2120/projects/gaussian-development/live/home/gau
 ssiangdvJ05_pgi_18/gdvtest_v13_j05_cx1/l510
 ----------------------------------------------------------------------
 #P nonstd 1/6=1,7=11,8=120,9=3,20=0,38=1,42=1,43=6,71=500,172=1/1,18; 
 2/12=2,15=1,17=6,18=5,40=1/2; 3/5=1,6=6,7=1,14=-4,25=1,71=2,116=101,14
 0=1/1,2,3; 4/5=1,6=2,17=15,18=8,21=20,43=1,69=2/1,5; 5/5=2,7=-3,14=11,
 17=41000210,28=8,33=0,38=6,51=1,72=1,88=1,92=10,93=20,94=999999,97=23,
 100=101/10; 8/6=4,10=90,11=11,107=2/1; 11/31=1,42=1,45=1/1; 10/6=1,10=
 700007,28=8,31=1,33=0,97=23,100=101/3(-3); 6/7=3,8=2,9=2,10=2/1; 7/8=1
 00001,10=1,25=1,30=1/1,2,3,16; 1/6=1,7=11,8=120,9=3,20=0,42=1,43=6,71=
 500/18(3); 2/15=1/2; 99/9=1/99;
 ----------------------------------------------------------------------
 1/6=1,7=11,8=120,9=3,38=1,42=1,43=6,71=500,172=1/1,18;
 2/12=2,15=1,17=6,18=5,40=1/2;
 3/5=1,6=6,7=1,14=-4,25=1,71=2,116=101,140=1/1,2,3;
 4/5=1,6=2,17=15,18=8,21=20,43=1,69=2/1,5;
 5/5=2,7=-3,14=11,17=41000210,28=8,38=6,51=1,72=1,88=1,92=10,93=20,94=999999,97=23,100=101/10;
 8/6=4,10=90,11=11,107=2/1;
 11/31=1,42=1,45=1/1;
 10/6=1,10=700007,28=8,31=1,97=23,100=101/3(-3);
 6/7=3,8=2,9=2,10=2/1;
 7/8=100001,10=1,25=1,30=1/1,2,3,16;
 1/6=1,7=11,8=120,9=3,42=1,43=6,71=500/18(3);
 2/15=1/2;
 99/9=1/99;
 Leave Link    1 at Wed Apr 14 00:57:24 2021, MaxMem=   458752000 cpu:               0.0 elap:               0.0
 (Enter /rds/general/project/gaussian-development/live/home/gaussiangdvJ05_pgi_18/gdv/l101.exe)
 ----------------------------------------------------------------------
 Freq IOp(5/17=41000200,10/10=700007) Guess=Read Ehrenfest Dyn. first b
 lock: init. geom. in Bohr second: init. momenta in some units final bl
 ock: initial TD wavefunction
 ----------------------------------------------------------------------
 Symbolic Z-matrix:
 Charge =  1 Multiplicity = 2
 C                    -0.07716   0.55447   0. 
 O                     1.35484   0.80815   0. 
 O                    -1.03792   1.49299   0. 
 C                    -0.62915  -0.85214   0. 
 N                     0.41105  -1.94512   0. 
 H                    -0.86092   2.49643   0. 
 H                    -1.26751  -0.91072   0.8939 
 H                    -1.26751  -0.91072  -0.8939 
 H                     1.01035  -1.7528    0.80825 
 H                     1.01035  -1.7528   -0.80825 
 
 ITRead=  0  0  0  0  0  0  0  0  0  0
 MicOpt= -1 -1 -1 -1 -1 -1 -1 -1 -1 -1
 NAtoms=     10 NQM=       10 NQMF=       0 NMMI=      0 NMMIF=      0
                NMic=       0 NMicF=      0.
                    Isotopes and Nuclear Properties:
 (Nuclear quadrupole moments (NQMom) in fm**2, nuclear magnetic moments (NMagM)
  in nuclear magnetons)

  Atom         1           2           3           4           5           6           7           8           9          10
 IAtWgt=          12          16          16          12          14           1           1           1           1           1
 AtmWgt=  12.0000000  15.9949146  15.9949146  12.0000000  14.0030740   1.0078250   1.0078250   1.0078250   1.0078250   1.0078250
 NucSpn=           0           0           0           0           2           1           1           1           1           1
 AtZEff=  -0.0000000  -0.0000000  -0.0000000  -0.0000000  -0.0000000  -0.0000000  -0.0000000  -0.0000000  -0.0000000  -0.0000000
 NQMom=    0.0000000   0.0000000   0.0000000   0.0000000   2.0440000   0.0000000   0.0000000   0.0000000   0.0000000   0.0000000
 NMagM=    0.0000000   0.0000000   0.0000000   0.0000000   0.4037610   2.7928460   2.7928460   2.7928460   2.7928460   2.7928460
 AtZNuc=   6.0000000   8.0000000   8.0000000   6.0000000   7.0000000   1.0000000   1.0000000   1.0000000   1.0000000   1.0000000
 Leave Link  101 at Wed Apr 14 00:57:24 2021, MaxMem=   458752000 cpu:               0.1 elap:               0.1
 (Enter /rds/general/project/gaussian-development/live/home/gaussiangdvJ05_pgi_18/gdv/l118.exe)
 TRJ-TRJ-TRJ-TRJ-TRJ-TRJ-TRJ-TRJ-TRJ-TRJ-TRJ-TRJ-TRJ-TRJ-TRJ-TRJ-TRJ-TRJ
 ------------------------------------------------------------------------
 INPUT DATA FOR L118
 ------------------------------------------------------------------------

 General parameters:
 Max. points for each Traj.   =       1
 Total Number of Trajectories =       1
 Random Number Generator Seed =  398465
 Trajectory Step Size         =   0.012 sqrt(amu)*bohr

 Sampling parameters:
 Trajectory starting from initial velocity.
 Scaling and sampling options will be ignored!

 Integration parameters:
 Correction Scheme            = None                                
 Project trans/rot in grad.   = True 
 Hessian evaluation           = Full Hessian always

 Initial velocity (bohr/sec) for trajectory      1
 I=    1 X=   0.000000000000D+00 Y=   0.000000000000D+00 Z=   0.000000000000D+00
 I=    2 X=   0.000000000000D+00 Y=   0.000000000000D+00 Z=   0.000000000000D+00
 I=    3 X=   0.000000000000D+00 Y=   0.000000000000D+00 Z=   0.000000000000D+00
 I=    4 X=   0.000000000000D+00 Y=   0.000000000000D+00 Z=   0.000000000000D+00
 I=    5 X=   0.000000000000D+00 Y=   0.000000000000D+00 Z=   0.000000000000D+00
 I=    6 X=   0.000000000000D+00 Y=   0.000000000000D+00 Z=   0.000000000000D+00
 I=    7 X=   0.000000000000D+00 Y=   0.000000000000D+00 Z=   0.000000000000D+00
 I=    8 X=   0.000000000000D+00 Y=   0.000000000000D+00 Z=   0.000000000000D+00
 I=    9 X=   0.000000000000D+00 Y=   0.000000000000D+00 Z=   0.000000000000D+00
 I=   10 X=   0.000000000000D+00 Y=   0.000000000000D+00 Z=   0.000000000000D+00
 ------------------------------------------------------------------------
 TRJ-TRJ-TRJ-TRJ-TRJ-TRJ-TRJ-TRJ-TRJ-TRJ-TRJ-TRJ-TRJ-TRJ-TRJ-TRJ-TRJ-TRJ
 Leave Link  118 at Wed Apr 14 00:57:24 2021, MaxMem=   458752000 cpu:               0.1 elap:               0.1
 (Enter /rds/general/project/gaussian-development/live/home/gaussiangdvJ05_pgi_18/gdv/l202.exe)
                          Input orientation:                          
 ---------------------------------------------------------------------
 Center     Atomic      Atomic             Coordinates (Angstroms)
 Number     Number       Type             X           Y           Z
 ---------------------------------------------------------------------
      1          6           0       -0.077164    0.554472    0.000000
      2          8           0        1.354838    0.808147    0.000000
      3          8           0       -1.037920    1.492992    0.000000
      4          6           0       -0.629148   -0.852142    0.000000
      5          7           0        0.411048   -1.945121    0.000000
      6          1           0       -0.860922    2.496435    0.000000
      7          1           0       -1.267509   -0.910720    0.893902
      8          1           0       -1.267509   -0.910720   -0.893902
      9          1           0        1.010352   -1.752804    0.808250
     10          1           0        1.010352   -1.752804   -0.808250
 ---------------------------------------------------------------------
                    Distance matrix (angstroms):
                    1          2          3          4          5
     1  C    0.000000
     2  O    1.454297   0.000000
     3  O    1.343083   2.488836   0.000000
     4  C    1.511042   2.587037   2.380493   0.000000
     5  N    2.546825   2.910537   3.730969   1.508844   0.000000
     6  H    2.094158   2.785661   1.018934   3.356589   4.620100
     7  H    2.088724   3.260409   2.574802   1.099999   2.164856
     8  H    2.088724   3.260409   2.574802   1.099999   2.164856
     9  H    2.675721   2.707473   3.922229   2.037749   1.024412
    10  H    2.675721   2.707473   3.922229   2.037749   1.024412
                    6          7          8          9         10
     6  H    0.000000
     7  H    3.545854   0.000000
     8  H    3.545854   1.787804   0.000000
     9  H    4.712851   2.430040   2.965650   0.000000
    10  H    4.712851   2.965650   2.430040   1.616500   0.000000
 Symmetry turned off by external request.
 Stoichiometry    C2H5NO2(1+,2)
 Framework group  CS[SG(C2HNO2),X(H4)]
 Deg. of freedom    15
 Full point group                 CS      NOp   2
 Rotational constants (GHZ):           8.5589038           3.8253488           2.7272736
 Leave Link  202 at Wed Apr 14 00:57:24 2021, MaxMem=   458752000 cpu:               0.1 elap:               0.1
 (Enter /rds/general/project/gaussian-development/live/home/gaussiangdvJ05_pgi_18/gdv/l301.exe)
 Standard basis: 6-31G(d) (6D, 7F)
 Ernie: Thresh=  0.10000D-02 Tol=  0.10000D-05 Strict=F.
    85 basis functions,   160 primitive gaussians,    85 cartesian basis functions
    20 alpha electrons       19 beta electrons
       nuclear repulsion energy       171.6676677276 Hartrees.
 IExCor=    0 DFT=F Ex=HF Corr=None N6=None ScaHFX=  1.000000
 ScaDFX=  1.000000  1.000000  1.000000  1.000000  0.000000  0.000000
 ScaDFX=  0.000000  0.000000  0.000000  0.000000  0.000000  0.000000
 IRadAn=      5 IRanWt=     -1 IRanGd=            0 ICorTp=0 IEmpDi=  4
 NAtoms=   10 NActive=   10 NUniq=   10 SFac= 1.00D+00 NAtFMM=   60 NAOKFM=F Big=F
 Integral buffers will be    131072 words long.
 Regular integral format.
 Two-electron integral symmetry is turned off.
 Leave Link  301 at Wed Apr 14 00:57:24 2021, MaxMem=   458752000 cpu:               0.1 elap:               0.1
 (Enter /rds/general/project/gaussian-development/live/home/gaussiangdvJ05_pgi_18/gdv/l302.exe)
 NPDir=0 NMtPBC=     1 NCelOv=     1 NCel=       1 NClECP=     1 NCelD=      1
         NCelK=      1 NCelE2=     1 NClLst=     1 CellRange=     0.0.
 One-electron integrals computed using PRISM.
 NBasis=    85 RedAO= T EigKep=  4.61D-03  NBF=    85
 NBsUse=    85 1.00D-06 EigRej= -1.00D+00 NBFU=    85
 Leave Link  302 at Wed Apr 14 00:57:24 2021, MaxMem=   458752000 cpu:               0.1 elap:               0.1
 (Enter /rds/general/project/gaussian-development/live/home/gaussiangdvJ05_pgi_18/gdv/l303.exe)
 DipDrv:  MaxL=1.
 Leave Link  303 at Wed Apr 14 00:57:24 2021, MaxMem=   458752000 cpu:               0.1 elap:               0.1
 (Enter /rds/general/project/gaussian-development/live/home/gaussiangdvJ05_pgi_18/gdv/l401.exe)
 Initial guess from the checkpoint file:  "/rds/general/ephemeral/user/dd2120/ephemeral/3351532.pbs/dd_data_nm/gwp1_V1/gwp1_V1_dd_data_nm.chk"
 B after Tr=     0.000000    0.000000    0.000000
         Rot=    1.000000    0.000000    0.000000    0.000000 Ang=   0.00 deg.
 Guess basis will be translated and rotated to current coordinates.
 JPrj=0 DoOrth=T DoCkMO=T.
 Leave Link  401 at Wed Apr 14 00:57:24 2021, MaxMem=   458752000 cpu:               0.1 elap:               0.1
 (Enter /rds/general/project/gaussian-development/live/home/gaussiangdvJ05_pgi_18/gdv/l405.exe)
          Truncation Level=               99999
          a=  7          b=  1          c=  0
          a=N/2 - s   b=2s   c=n- (a+b)
          no. active orbitals (n)  8
          no. active ELECTRONS (N)= 15
                                                  IRREPS TO BE RETAINED = 1
                                                  GROUP IRREP. MULT. TABLE
                                                      1
                                                  IRREP. LABELS FOR ORBITALS
                                                   1 1 1 1 1 1 1 1
          BOTTOM WEIGHT= 64     TOP WEIGHT= 71
          Configuration         1 Symmetry 1 1111111a
          Configuration         2 Symmetry 1 111111a1
          Configuration         3 Symmetry 1 11111a11
          Configuration         4 Symmetry 1 1111a111
          Configuration         5 Symmetry 1 111a1111
          Configuration         6 Symmetry 1 11a11111
          Configuration         7 Symmetry 1 1a111111
          Configuration         8 Symmetry 1 a1111111
          NO OF BASIS FUNCTIONS =         8 NO TO BE DELETED =    0
 CI Matrix Elements calculated here
          NO. OF CONFIGURATIONS IN REFERENCE SPACE =    1
                                   SECONDARY SPACE =    8
                                   TERTIARY SPACE =    8
          NO. OF ORBITALS =    8
          NO. OF ELECTRONS =   15
          NO. OF WEIGHTS =    8
          REFERENCE STATE CONFIGURATIONS ARE:     0
          NO. OF CORE ORBITALS =    0
          OPTION:  NON-DIAGONAL HOLE LINE INTERACTIONS INCLUDED
 Len28=       26648 LenMCI=        3500.
 Leave Link  405 at Wed Apr 14 00:57:27 2021, MaxMem=   458752000 cpu:               2.7 elap:               2.8
 (Enter /rds/general/user/dd2120/projects/gaussian-development/live/home/gaussiangdvJ05_pgi_18/gdvtest_v13_j05_cx1/l510/l510.exe)
 Prepare State Averaged 2nd derivatives
  MCSCF will prepare Gradient Dif. and Deriv. Cps.
                        0                  145023
 Enter MCSCF program.
 NBasis=   85 NCore=   12 NVal=    8 NVirt=   65 IFrame=0 Acc=  1.00D-08.
  Memory needed for Incore Integrals:                15843915
  Memory needed for direct integral evaluation:                 8144361
  Integrals KEPT IN MEMORY
 IBUJAK length=                 3056005
 Integral file not found: evaluate integrals 
 FoFCou: FMM=F IPFlag=           0 FMFlag=           0 FMFlg1=           0
         NFxFlg=           0 DoJE=F BraDBF=F KetDBF=F FulRan=T
         wScrn=  0.000000 ICntrl=       600 IOpCl=  0 I1Cent=           0 NGrid=           0
         NMat0=    1 NMatS0=      1 NMatT0=    0 NMatD0=    1 NMtDS0=    0 NMtDT0=    0
 Symmetry not used in FoFCou.
 First order MCSCF but last itn is Quadratic
 Defining IBUGAM
 State Average Calculation.   The weights are:
 St.: 1 w.=0.125000 # St.: 2 w.=0.125000 # St.: 3 w.=0.125000 # St.: 4 w.=0.125000 #
 St.: 5 w.=0.125000 # St.: 6 w.=0.125000 # St.: 7 w.=0.125000 # St.: 8 w.=0.125000 #
 2ND ORD PT ENERGY     CV    0.000000   CU   -0.000000   UV   -0.000000
 TOTAL                    -281.120607
 ITN=  1 MaxIt=*** E=   -281.1206065285 DE=-2.81D+02 Acc= 1.00D+00 Lan=  0
 ITN=  2 MaxIt=*** E=   -281.1206215714 DE=-1.50D-05 Acc= 1.00D+00 Lan=  0
 ... Do an extra-iteration for final printing.


                    EIGENVALUES AND  EIGENVECTORS OF CI MATRIX



   ( 1)     EIGENVALUE   -282.3412546    
 (    4) 0.9808818 (    5) 0.1275890 (    6)-0.1223619 (    1) 0.0721827 (    8)-0.0235441 (    3)-0.0216554 (    2)-0.0162343
 (    7)-0.0110638 (


   ( 2)     EIGENVALUE   -282.2435385        2.6590 eV
 (    7) 0.5837788 (    3) 0.5256451 (    5) 0.4531915 (    2)-0.2762509 (    6) 0.2739378 (    1) 0.1455471 (    8) 0.0675763
 (    4)-0.0202476 (


   ( 3)     EIGENVALUE   -282.0808732        7.0853 eV
 (    5) 0.6567370 (    2)-0.4656070 (    7)-0.3923528 (    3)-0.2972627 (    6)-0.2337618 (    1) 0.1694051 (    4)-0.1473652
 (    8)-0.0673914 (


   ( 4)     EIGENVALUE   -282.0534682        7.8311 eV
 (    6) 0.5870687 (    1)-0.4876192 (    2)-0.4338361 (    8) 0.3825465 (    7)-0.2050316 (    3)-0.1368831 (    4) 0.1177028
 (    5)-0.0916150 (


   ( 5)     EIGENVALUE   -281.8368419       13.7258 eV
 (    8) 0.6601273 (    2) 0.4817618 (    1) 0.4229593 (    5) 0.2373952 (    6) 0.2346667 (    7)-0.1953016 (    3)-0.0593376
 (    4)-0.0124252 (


   ( 6)     EIGENVALUE   -281.6869808       17.8037 eV
 (    6) 0.6450539 (    8)-0.6379033 (    2) 0.2566048 (    7)-0.2552242 (    5) 0.1611756 (    1) 0.1365706 (    4) 0.0352611
 (    3)-0.0112673 (


   ( 7)     EIGENVALUE   -281.2808507       28.8551 eV
 (    3) 0.7512637 (    7)-0.5914631 (    5)-0.1864564 (    2)-0.1576538 (    1) 0.1193088 (    6)-0.1028561 (    8) 0.0349752
 (    4) 0.0107874 (


   ( 8)     EIGENVALUE   -281.1205981       33.2158 eV
 (    1) 0.7038142 (    5)-0.4706821 (    2)-0.4422930 (    3)-0.2192740 (    6) 0.1701440 (    7) 0.0999525 (    4) 0.0194023
 (    8)-0.0091552 (
 vector                       4phase change made
 vector                       6phase change made
 vector                       8phase change made
 ****************************
 Modification for TDcode: NoL118
 iTrans does not exist
 Creating and defining iTrans=  850
 iTrans has a length of   20
 NAtoms=   10
 Creating and defining iTDhes=  833
 iTDhes has a length of  495
 Read common block TrjDat from L118
 MaxStp=    2
 StpSiz=    0.0120000
 Putting information on iTrans
 Length=   20
 MaxPoints=    2
 StpSiz=    0.0120000
 NHesTd=    0
 iHsOff=    0
 Putting information on ILSW
 MixExt=    0
 ****************************
  
 ---INPUT DATA FOR TIME DEPENDENT CODE---
  
 Method: Propagation on mixed State
 Start: First hop is down
 Debug option: force immediate start
  
 Gradient options:
 -use Time Dependent basis
 -check ECC by diagonalisation every step
  
 Creating and defining iTDep=                     813
 iTDep has a length of                      424
  
 Creating file iTDHX=                     818
 iTDHX has a length of                  2280100
  
 Creating file iTDHYA=                     834
 iTDHYA has a length of                  2280100
  
 Creating file iTDHYS=                     820
 iTDHYS has a length of                  2280100
  
 ---DATA STORED ON ITDEP---

 Space in itdep for wavefunction allocated as follows:
 NSec................................................. =         8
 MaxPt................................................ =         2
                             Vectors Start at:
 NData (100).....................................idata =         1
 previous iteration MCSCF Energies (NSec).......ienrgy =       101
 previous iteration MCSCF Vectors (NSec*NSec)...imcvec =       109
 Time (MaxPt)....................................itime =       173
 Time Dep Vector in CSF basis (MaxPt*2*NSec)....iatcsf =       175
 Time Dep Vector in eigen basis (MaxPt*2*NSec)...iatci =       207
 Time Dep Energy (MaxPt).........................iaeng =       223
 ---------------------------------------------------
 Total .........................................itotal =       224


 Space in itdep for gradient allocated as follows:
                             Vectors Start at:
 Time Dep Hamiltonain (NSec*NSec)...............jtdham =       224
 Time Dep ECC (NSec*NSec).......................jtdecc =       288
 Time Dep inverted ECC (NSec*NSec)..............jtdinv =       352
 All Time Dep Vectors Energy (NSec).............jtdeng =       416
 ---------------------------------------------------
 Total .........................................ktotal =       424

 ****************************
 Modification for TDcode: NoL118
 Read iTDep
 IRun=    1
 INewAd=    0
 INewDi=    0
 Read iTrans
 iopV=   23
 NHesTd=    0
 iHsOff=    0
 Read ILSW
 Ihup=    2
 MixExt=    0
 Read common block TrjDat from L118
 Ihup=    0
 NHessE=    0
 NHesTp=    5
 NHesUp=    0
 NHsBck=    2
 Write TTime into iTDep
 DTime(2)=    0.0000000
 TTime=     0.0000000
 ****************************
 Reference core energy  0.0000000000000000E+000
 SA info  IstaLo  Istate
                        1                       8
                                 au    KCal/mol      KJ/mol
 Current energy gap is      0.16025   100.56004   420.74320
 Start when energy gap is   0.99900   626.88203  2622.87442
  
 Starting time dep immediately 
 Start Time Dependent Code!
 Initiating changes in L118
 ****************************
 Modification for TDcode: NoL118
 Alter thrust radius ENTER
 incoming step size from L118    1.2000000000000000E-002
 incoming Dtime(2)  from L118    0.0000000000000000E+000
 step size from L510   2.0000000000000000E-002reset to  0.0000000000000000E+000
 New step size =  0.000
 ****************************
  
 WARNING, Altering Thrust radius to TimeDep value!
 Altered Thrust radius is  0.000
 AJJ Timdep fthere: T
 there
 AJJ BTime, CTime   29.95000000000000        30.00000000000000     
  
 Total time from previous Traj step=    29.95000 femto seconds(BTime)
 Time step taken in Traj=                0.05000 femto seconds(DTime)
 Total time from current Traj step=     30.00000 femto seconds(CTime)
  
 Summary of Results
 Times TimeDep has run                   0
 TimeDep started on Count step           2
 Current Count step                      1
 Current Trajectory step                 1
 Current TimeDep step                    0
 Maximium number of Trajectory step      2
 Maximium number of TimeDep steps        1
 Projecting using state                  8
  
 Printing new MCSCF vectors and energies
 State     Energy
     1   -282.34125
     2   -282.24354
     3   -282.08087
     4   -282.05347
     5   -281.83684
     6   -281.68698
     7   -281.28085
     8   -281.12060
                        8
 no of vectors from eival code
 project in full space
  
 Current Time Dep wavefunction in basis of configuration state functions
  config        Real           Imag
      1       0.73058       -0.15666
      2      -0.02168        0.18205
      3       0.35406       -0.05912
      4      -0.28810        0.02187
      5      -0.04753        0.18635
      6      -0.15433        0.09799
      7      -0.20731       -0.05285
      8      -0.04674        0.27822
  
 Current Time Dep wavefunction in basis of ci state functions
  config        Real           Imag
      1      -0.22095        0.01429
      2       0.11627       -0.00537
      3       0.16042        0.00451
      4       0.49084       -0.16580
      5       0.24327        0.28590
      6      -0.05558        0.04399
      7       0.49918       -0.09541
      8      -0.41637        0.25625
 Total Probability is      1.00000
  
 The total energy Time dep state is    -281.61595
  
 Information for the important states
         STATE       Real      Imag      Prob for this state
 state     1       0.04882   0.00020   0.04902
 state     2       0.01352   0.00003   0.01355
 state     3       0.02573   0.00002   0.02575
 state     4       0.24093   0.02749   0.26842
 state     5       0.05918   0.08174   0.14092
 state     7       0.24918   0.00910   0.25829
 state     8       0.17336   0.06567   0.23903
                                       --------
  
 End Results
 Final one electron symbolic density matrix:
                1             2             3             4             5 
      1  0.199992D+01
      2 -0.183017D-02  0.199001D+01
      3  0.311540D-02  0.340126D-01  0.197105D+01
      4  0.861837D-02  0.940917D-01 -0.160167D+00  0.177846D+01
      5  0.355264D-03  0.387862D-02 -0.660237D-02 -0.182646D-01  0.199962D+01
      6  0.401499D-02  0.438340D-01 -0.746163D-01 -0.206417D+00 -0.850885D-02
      7 -0.809855D-02 -0.884166D-01  0.150507D+00  0.416359D+00  0.171630D-01
      8 -0.128871D-01 -0.140696D+00  0.239500D+00  0.662546D+00  0.273112D-01
                6             7             8 
      6  0.195192D+01
      7  0.193967D+00  0.180438D+01
      8  0.308656D+00 -0.622584D+00  0.150465D+01
 Density Matrix for State                           1
                1             2             3             4             5 
      1  0.199945D+01
      2  0.520976D-03  0.199988D+01
      3 -0.576180D-02  0.270758D-02  0.198503D+01
      4 -0.600793D-02  0.282325D-02 -0.312241D-01  0.198372D+01
      5  0.461879D-01 -0.217046D-01  0.240045D+00  0.250300D+00  0.103787D+01
      6  0.101971D-02 -0.479183D-03  0.529958D-02  0.552597D-02 -0.424827D-01
      7 -0.764444D-03  0.359228D-03 -0.397292D-02 -0.414264D-02  0.318479D-01
      8 -0.339895D-02  0.159723D-02 -0.176648D-01 -0.184194D-01  0.141605D+00
                6             7             8 
      6  0.199953D+01
      7  0.703120D-03  0.199974D+01
      8  0.312628D-02 -0.234367D-02  0.199479D+01
 Density Matrix for State                           2
                1             2             3             4             5 
      1  0.199543D+01
      2  0.788992D-01  0.165920D+01
      3 -0.370234D-01  0.319838D+00  0.192496D+01
      4  0.612500D-01 -0.529127D+00  0.248293D+00  0.179462D+01
      5  0.273652D-02 -0.236403D-01  0.110932D-01 -0.183521D-01  0.199959D+01
      6  0.710423D-01 -0.613721D+00  0.287988D+00 -0.476436D+00 -0.212861D-01
      7  0.373360D-01 -0.322539D+00  0.151351D+00 -0.250389D+00 -0.111869D-01
      8  0.196711D-01 -0.169935D+00  0.797417D-01 -0.131921D+00 -0.589397D-02
                6             7             8 
      6  0.172370D+01
      7 -0.290420D+00  0.192369D+01
      8 -0.153012D+00 -0.804150D-01  0.197882D+01
 Density Matrix for State                           3
                1             2             3             4             5 
      1  0.199546D+01
      2  0.528824D-01  0.184606D+01
      3 -0.315071D-01  0.183434D+00  0.194536D+01
      4 -0.885169D-01  0.515345D+00 -0.307040D+00  0.156870D+01
      5 -0.198623D-01  0.115638D+00 -0.688967D-01 -0.193560D+00  0.197828D+01
      6  0.400659D-01 -0.233264D+00  0.138977D+00  0.390447D+00  0.876124D-01
      7 -0.627558D-01  0.365364D+00 -0.217682D+00 -0.611563D+00 -0.137229D+00
      8 -0.228329D-01  0.132933D+00 -0.792009D-01 -0.222509D+00 -0.499288D-01
                6             7             8 
      6  0.191163D+01
      7  0.276815D+00  0.178321D+01
      8  0.100716D+00 -0.157752D+00  0.197130D+01
 Density Matrix for State                           4
                1             2             3             4             5 
      1  0.185366D+01
      2 -0.156868D+00  0.195796D+01
      3 -0.449162D+00 -0.240735D+00  0.165535D+01
      4 -0.700940D-01 -0.375680D-01 -0.107569D+00  0.199161D+01
      5 -0.900536D-01 -0.482656D-01 -0.138199D+00 -0.215667D-01  0.198615D+01
      6 -0.104728D+00 -0.561307D-01 -0.160720D+00 -0.250811D-01 -0.322231D-01
      7  0.331925D+00  0.177900D+00  0.509383D+00  0.794918D-01  0.102127D+00
      8 -0.373074D+00 -0.199955D+00 -0.572532D+00 -0.893465D-01 -0.114788D+00
                6             7             8 
      6  0.198126D+01
      7  0.118770D+00  0.181179D+01
      8 -0.133494D+00  0.423094D+00  0.176223D+01
 Density Matrix for State                           5
                1             2             3             4             5 
      1  0.156423D+01
      2 -0.257848D+00  0.196186D+01
      3 -0.309820D+00 -0.916616D-01  0.194493D+01
      4  0.313422D+00  0.927273D-01  0.111417D+00  0.194364D+01
      5  0.164045D-01  0.485333D-02  0.583157D-02 -0.589938D-02  0.199985D+01
      6 -0.783407D-01 -0.231775D-01 -0.278491D-01  0.281729D-01  0.147457D-02
      7 -0.636048D+00 -0.188178D+00 -0.226107D+00  0.228736D+00  0.119720D-01
      8  0.558414D+00  0.165209D+00  0.198509D+00 -0.200817D+00 -0.105107D-01
                6             7             8 
      6  0.199648D+01
      7 -0.571732D-01  0.176791D+01
      8  0.501948D-01  0.407531D+00  0.182111D+01
 Density Matrix for State                           6
                1             2             3             4             5 
      1  0.159308D+01
      2  0.325617D+00  0.193486D+01
      3  0.822964D+00 -0.329267D+00  0.158391D+01
      4 -0.205629D+00  0.822718D-01  0.207934D+00  0.197402D+01
      5  0.449864D-01 -0.179990D-01 -0.454906D-01  0.113665D-01  0.199876D+01
      6  0.143749D-01 -0.575136D-02 -0.145360D-01  0.363202D-02 -0.794593D-03
      7  0.327378D+00 -0.130984D+00 -0.331048D+00  0.827169D-01 -0.180963D-01
      8 -0.174238D+00  0.697122D-01  0.176191D+00 -0.440237D-01  0.963126D-02
                6             7             8 
      6  0.199987D+01
      7 -0.578247D-02  0.193415D+01
      8  0.307756D-02  0.700893D-01  0.198135D+01
 Density Matrix for State                           7
                1             2             3             4             5 
      1  0.199878D+01
      2 -0.413731D-01  0.165017D+01
      3  0.719483D-02  0.121671D+00  0.198942D+01
      4 -0.130427D-01 -0.220564D+00  0.383563D-01  0.196523D+01
      5 -0.754586D-03 -0.127607D-01  0.221911D-02 -0.402277D-02  0.199988D+01
      6  0.525512D-01  0.888689D+00 -0.154544D+00  0.280156D+00  0.162084D-01
      7  0.110280D-01  0.186493D+00 -0.324313D-01  0.587911D-01  0.340136D-02
      8  0.834570D-02  0.141133D+00 -0.245433D-01  0.444918D-01  0.257407D-02
                6             7             8 
      6  0.143560D+01
      7 -0.236879D+00  0.197515D+01
      8 -0.179265D+00 -0.376190D-01  0.198577D+01
  Final State Averaged  Density Matrix
                1             2             3             4             5 
      1  0.187500D+01
      2  0.164799D-16  0.187500D+01
      3  0.716658D-16 -0.260209D-16  0.187500D+01
      4 -0.143115D-16  0.170003D-15 -0.416334D-16  0.187500D+01
      5  0.272406D-17  0.490059D-16 -0.477049D-17  0.172822D-15  0.187500D+01
      6  0.320924D-16 -0.138778D-15  0.173472D-16 -0.693889D-17  0.407660D-16
      7  0.494396D-16  0.346945D-16  0.242861D-16 -0.312250D-16 -0.388144D-16
      8 -0.359955D-16  0.346945D-17  0.190820D-16  0.118829D-15  0.196241D-16
                6             7             8 
      6  0.187500D+01
      7  0.173472D-16  0.187500D+01
      8 -0.346945D-16 -0.119696D-15  0.187500D+01
 ****************************
 Modification for TDcode: GradOnlyNoCP7
 This trajectory computes the CP-MCSCF
 IOp(5/17=XXXXX2XX)
 Call A2TDep
 Check the energy is the same
 A(t) energy is           -281.61595
 Real A(t) energy is      -281.61595
                the CI         and TD Energies 
 root     1   -282.3412546     -281.2935318 
 root     2   -282.2435385     -281.6597296 
 root     3   -282.0808732     -282.0685831 
 root     4   -282.0534682     -282.2345152 
 root     5   -281.8368419     -281.7952075 
 root     6   -281.6869808     -281.6861547 
 root     7   -281.2808507     -282.2907351 
 root     8   -281.1205981     -281.6159490 
  
 MCSCF state                        2 almost degenerate with projecting state 
                        8
 MCSCF state                        5 almost degenerate with projecting state 
                        8
 MCSCF state                        6 almost degenerate with projecting state 
                        8
   possible instability detected in ECC hence will diagonalise
 TD state                        8 almost degenerate with TD state 
                        7
 Degeneracy detected in ECC
 EYY=Eyy-Eyc[Ecc-1]Ecy completed
 ****************************
 ****************************
  spin density
 ****************************
 Using Gould-Chandler-Battle algorythm
    92 Matrix elements generated
 MCSCF converged.
 Leave Link  510 at Wed Apr 14 00:57:57 2021, MaxMem=   458752000 cpu:              29.6 elap:              30.0
 (Enter /rds/general/project/gaussian-development/live/home/gaussiangdvJ05_pgi_18/gdv/l801.exe)
 Range of M.O.s used for correlation:     1    85
 NBasis=    85 NAE=    20 NBE=    19 NFC=     0 NFV=     0
 NROrb=     85 NOA=    20 NOB=    19 NVA=    65 NVB=    66
 Leave Link  801 at Wed Apr 14 00:57:58 2021, MaxMem=   458752000 cpu:               0.1 elap:               0.1
 (Enter /rds/general/project/gaussian-development/live/home/gaussiangdvJ05_pgi_18/gdv/l1101.exe)
 Not using compressed storage, NAtomX=    10.
 Will process     10 centers per pass.
 Leave Link 1101 at Wed Apr 14 00:57:58 2021, MaxMem=   458752000 cpu:               0.2 elap:               0.2
 (Enter /rds/general/user/dd2120/projects/gaussian-development/live/home/gaussiangdvJ05_pgi_18/gdvtest_v13_j05_cx1/l1003/l1003.exe)
 AJJ INITCP                       1 F                       1
 State Average second derivatives
 Gradient Difference/Derivative Coupling Calculation
 NO. OF ORBITALS         = 85      NO. OF CORE-ORBITALS    = 12
 NO. OF VALENCE-ORBITALS =  8      NO. OF VIRTUAL-ORBITALS = 65
 One call to fofjk will do it.
 FoFJK:  IHMeth= 0 ICntrl=    3500 DoSepK=F KAlg= 0 I1Cent=           0 FoldK=F
 IRaf=         0 NMat=       7 IRICut=       1 DoRegI=T DoRafI=F ISym2E= 0 IDoP0=0 IntGTp=1.
 FoFCou: FMM=F IPFlag=           0 FMFlag=      100000 FMFlg1=           0
         NFxFlg=           0 DoJE=F BraDBF=F KetDBF=F FulRan=T
         wScrn=  0.000000 ICntrl=      3500 IOpCl=  1 I1Cent=           0 NGrid=           0
         NMat0=    7 NMatS0=      7 NMatT0=    0 NMatD0=    7 NMtDS0=    0 NMtDT0=    0
 Symmetry not used in FoFCou.
 JobTyp= 0 Pass  1:  I=   1 to   8  IAt=   2 to  10.
  
 iTDHX exists and is of correct length=                 2280100
 iTDHYA exists and is of correct length=                 2280100
 iTDHYS exists and is of correct length=                 2280100
 One call to fofjk will do it.
 reading timdep density
 JobTyp= 0 Pass  1:  I=   1 to   8  IAt=   2 to  10.
 Forming derivative Fock matricies
  
 Final TD Derivative
        -0.1654711425        0.1617485025       -0.0000000600
         0.0268366809       -0.0060881465        0.0000000927
         0.0957545493       -0.1741794187       -0.0000002134
        -0.0069992683        0.0278049195        0.0000000238
        -0.0122350637       -0.0809896784        0.0000000054
         0.0430205258        0.0291548878        0.0000001122
        -0.0033423136        0.0056835942        0.0095321862
        -0.0033423055        0.0056835530       -0.0095321857
         0.0128891921        0.0155908613        0.0139595436
         0.0128891455        0.0155909252       -0.0139595048
 using TD gradient
 d2emc:  iwhgrd=                       7 igrdif=                       1
  inonop=                       5
     State    8   State    7
     Energy difference=     -0.1602526
  Crude BS vectors
 Derivative Coupling 
         0.1648972065       -0.0120902255        0.0000001345
        -0.2077329264       -0.0094529336       -0.0000000888
         0.0189171576       -0.0438679555       -0.0000001035
         0.0032298574        0.0076276128       -0.0000000181
        -0.0068809283       -0.0065418593        0.0000000121
         0.0176578549        0.0625584005        0.0000000862
         0.0016923029       -0.0017448997       -0.0006081471
         0.0016922965       -0.0017449364        0.0006081308
         0.0032635899        0.0026283914        0.0025986362
         0.0032635891        0.0026284054       -0.0025986422
 Unscaled Gradient Difference 
        -0.6406533599        0.3194830793        0.0000002628
         0.2491739527        0.0839837680       -0.0000000206
         0.4381214191       -0.2622581252       -0.0000001709
        -0.0021419343       -0.0100492769        0.0000001026
         0.0235847278        0.0173558435       -0.0000000321
        -0.0283312474       -0.1396553144       -0.0000001324
        -0.0088474681        0.0038437448        0.0065596071
        -0.0088474229        0.0038438019       -0.0065595916
        -0.0110293393       -0.0082737284       -0.0072436246
        -0.0110293278       -0.0082737927        0.0072435998
 Gradient of iOther State 
         0.0796269238       -0.1776311338       -0.0000000876
         0.3471694354        0.0002447101        0.0000001097
        -0.4487374237       -0.0444834771       -0.0000000057
         0.2007798202        0.0232894831       -0.0000000289
        -0.2879035884       -0.3502405812        0.0000000542
         0.0358145118        0.4062978734       -0.0000000363
        -0.1535728070       -0.0156393077        0.2308752014
        -0.1535728523       -0.0156393190       -0.2308752247
         0.1901979977        0.0869008430        0.2359611231
         0.1901979824        0.0869009092       -0.2359611052
 Gradient of iVec State. 
        -0.3441483979        0.1819087164        0.0000000468
         0.1434951150        0.0774867398        0.0000000830
         0.2417693018       -0.1559740673       -0.0000001031
        -0.0444369428        0.0614478661        0.0000000250
         0.0359903049       -0.0545563059        0.0000000548
        -0.0234262936       -0.1402716030       -0.0000001209
        -0.0092259608        0.0081290236        0.0121227661
        -0.0092259656        0.0081290897       -0.0121227822
         0.0046044480        0.0068502519        0.0071139943
         0.0046043909        0.0068502887       -0.0071139637
 Angle of DC    (L=0.2780) and GD    (L=0.9297) is 126.03 degs
 Angle of GriVec(L=0.5404) and GrOthr(L=1.0619) is 105.52 degs
 Gradient of iOther State 
         0.0796269238       -0.1776311338       -0.0000000876
         0.3471694354        0.0002447101        0.0000001097
        -0.4487374237       -0.0444834771       -0.0000000057
         0.2007798202        0.0232894831       -0.0000000289
        -0.2879035884       -0.3502405812        0.0000000542
         0.0358145118        0.4062978734       -0.0000000363
        -0.1535728070       -0.0156393077        0.2308752014
        -0.1535728523       -0.0156393190       -0.2308752247
         0.1901979977        0.0869008430        0.2359611231
         0.1901979824        0.0869009092       -0.2359611052
 Gradient of iVec State. 
        -0.3441483979        0.1819087164        0.0000000468
         0.1434951150        0.0774867398        0.0000000830
         0.2417693018       -0.1559740673       -0.0000001031
        -0.0444369428        0.0614478661        0.0000000250
         0.0359903049       -0.0545563059        0.0000000548
        -0.0234262936       -0.1402716030       -0.0000001209
        -0.0092259608        0.0081290236        0.0121227661
        -0.0092259656        0.0081290897       -0.0121227822
         0.0046044480        0.0068502519        0.0071139943
         0.0046043909        0.0068502887       -0.0071139637
 The angle between DerCp and UGrDif has cos=-0.000
 and it is: 1.571 rad or : 90.00 degrees.
 The length**2 of DerCp is:1.0000 and GrDif is:1.0000
 But the length of DerCp is:1.0000 and GrDif is:1.0000
 ------------------ Projection to constraints complement -----------
 Angle of DerCp (L=1.0000) and UGrDif(L=1.0000) is  90.00 degs
 Angle of Force (L=0.5404) and UGrDif(L=1.0000) is  14.04 degs
 Angle of Force (L=0.5404) and DerCp (L=1.0000) is  90.50 degs
 Projected Gradient of iVec State. 
         0.0181712921        0.0026920064       -0.0000000976
        -0.0004258891        0.0302441919        0.0000000927
        -0.0032566469       -0.0099825072       -0.0000000095
        -0.0431695930        0.0672365701       -0.0000000328
         0.0226350891       -0.0644152169        0.0000000730
        -0.0071869810       -0.0607336989       -0.0000000450
        -0.0042345263        0.0059394124        0.0084355769
        -0.0042345565        0.0059394458       -0.0084356021
         0.0108509375        0.0115398615        0.0112259514
         0.0108508740        0.0115399347       -0.0112259071
 Projected Ivec Gradient: RMS= 0.02391 MAX= 0.06724
 Leave Link 1003 at Wed Apr 14 00:58:25 2021, MaxMem=   458752000 cpu:              26.8 elap:              27.0
 (Enter /rds/general/project/gaussian-development/live/home/gaussiangdvJ05_pgi_18/gdv/l601.exe)
 Copying SCF densities to generalized density rwf, IOpCl= 0 IROHF=3.

 **********************************************************************

            Population analysis using the SCF Density.

 **********************************************************************

 Alpha  occ. eigenvalues --    0.00000   0.00000   0.00000   0.00000   0.00000
 Alpha  occ. eigenvalues --    0.00000   0.00000   0.00000   0.00000   0.00000
 Alpha  occ. eigenvalues --    0.00000   0.00000   0.00000   0.00000   0.00000
 Alpha  occ. eigenvalues --    0.00000   0.00000   0.00000   0.00000   0.00000
 Alpha virt. eigenvalues --    0.00000   0.00000   0.00000   0.00000   0.00000
 Alpha virt. eigenvalues --    0.00000   0.00000   0.00000   0.00000   0.00000
 Alpha virt. eigenvalues --    0.00000   0.00000   0.00000   0.00000   0.00000
 Alpha virt. eigenvalues --    0.00000   0.00000   0.00000   0.00000   0.00000
 Alpha virt. eigenvalues --    0.00000   0.00000   0.00000   0.00000   0.00000
 Alpha virt. eigenvalues --    0.00000   0.00000   0.00000   0.00000   0.00000
 Alpha virt. eigenvalues --    0.00000   0.00000   0.00000   0.00000   0.00000
 Alpha virt. eigenvalues --    0.00000   0.00000   0.00000   0.00000   0.00000
 Alpha virt. eigenvalues --    0.00000   0.00000   0.00000   0.00000   0.00000
 Alpha virt. eigenvalues --    0.00000   0.00000   0.00000   0.00000   0.00000
 Alpha virt. eigenvalues --    0.00000   0.00000   0.00000   0.00000   0.00000
 Alpha virt. eigenvalues --    0.00000   0.00000   0.00000   0.00000   0.00000
 Alpha virt. eigenvalues --    0.00000   0.00000   0.00000   0.00000   0.00000
     Molecular Orbital Coefficients:
                           1         2         3         4         5
                           O         O         O         O         O
     Eigenvalues --     0.00000   0.00000   0.00000   0.00000   0.00000
   1 1   C  1S         -0.00253  -0.00353  -0.00059   0.99016   0.20059
   2        2S         -0.00597  -0.00423   0.00153  -0.01601  -0.01812
   3        2PX         0.00786  -0.01040  -0.00136  -0.00539   0.00658
   4        2PY        -0.00794  -0.00221  -0.00193  -0.00040   0.02101
   5        2PZ         0.00000   0.00000   0.00000  -0.00000   0.00000
   6        3S          0.00316   0.00292   0.00457  -0.03099  -0.01100
   7        3PX        -0.00108   0.00466  -0.00197   0.00159   0.00322
   8        3PY         0.00264   0.00024  -0.00245   0.00758   0.00308
   9        3PZ         0.00000   0.00000   0.00000   0.00000   0.00000
  10        4XX        -0.00067  -0.00206   0.00019  -0.00218   0.00035
  11        4YY        -0.00041   0.00108  -0.00063  -0.00102  -0.00263
  12        4ZZ         0.00080   0.00053  -0.00003   0.00007   0.00032
  13        4XY         0.00222  -0.00082   0.00056  -0.00016  -0.00120
  14        4XZ        -0.00000   0.00000  -0.00000   0.00000   0.00000
  15        4YZ         0.00000   0.00000   0.00000  -0.00000   0.00000
  16 2   O  1S          0.02242   1.01425  -0.00048   0.00743   0.00047
  17        2S         -0.00043  -0.03965   0.00031  -0.00921   0.00016
  18        2PX        -0.00125  -0.00415  -0.00047   0.02077   0.00054
  19        2PY         0.00055  -0.00079  -0.00083   0.00467  -0.00184
  20        2PZ         0.00000   0.00000  -0.00000   0.00000   0.00000
  21        3S         -0.00173  -0.06161   0.00157  -0.00469   0.00119
  22        3PX        -0.00020   0.00170  -0.00079   0.01360  -0.00027
  23        3PY         0.00006   0.00030  -0.00058   0.00174  -0.00253
  24        3PZ         0.00000   0.00000  -0.00000   0.00000   0.00000
  25        4XX        -0.00026  -0.00505  -0.00005  -0.00333  -0.00045
  26        4YY        -0.00000  -0.00363  -0.00015   0.00066   0.00004
  27        4ZZ        -0.00008  -0.00357  -0.00015   0.00065  -0.00007
  28        4XY         0.00013  -0.00026   0.00004  -0.00055  -0.00025
  29        4XZ        -0.00000  -0.00000  -0.00000  -0.00000  -0.00000
  30        4YZ        -0.00000  -0.00000   0.00000  -0.00000  -0.00000
  31 3   O  1S          1.01150  -0.02281   0.00056   0.00729   0.00091
  32        2S         -0.03032   0.00150  -0.00118  -0.00853  -0.00116
  33        2PX         0.00389   0.00194  -0.00088  -0.01445  -0.00179
  34        2PY         0.00057  -0.00033   0.00139   0.01245   0.00098
  35        2PZ         0.00000  -0.00000   0.00000  -0.00000   0.00000
  36        3S         -0.04594   0.00317  -0.00244  -0.00531   0.00369
  37        3PX         0.00089   0.00089  -0.00040  -0.00979  -0.00109
  38        3PY         0.00035  -0.00069   0.00147   0.00642  -0.00109
  39        3PZ         0.00000  -0.00000   0.00000  -0.00000   0.00000
  40        4XX        -0.00467  -0.00024  -0.00012  -0.00197  -0.00028
  41        4YY        -0.00735   0.00021   0.00019  -0.00020  -0.00071
  42        4ZZ        -0.00416  -0.00007  -0.00011   0.00080  -0.00018
  43        4XY         0.00051  -0.00000   0.00001   0.00204   0.00048
  44        4XZ         0.00000  -0.00000   0.00000  -0.00000   0.00000
  45        4YZ        -0.00000  -0.00000  -0.00000  -0.00000  -0.00000
  46 4   C  1S         -0.00054  -0.00011  -0.00629  -0.19246   0.98477
  47        2S          0.00097   0.00123  -0.01126  -0.00918   0.00501
  48        2PX        -0.00003   0.00067  -0.01517  -0.00185  -0.02283
  49        2PY         0.00129   0.00110   0.01464  -0.01303  -0.00512
  50        2PZ         0.00000  -0.00000   0.00000   0.00000  -0.00000
  51        3S          0.00328   0.00173  -0.00793   0.00833  -0.03223
  52        3PX         0.00097  -0.00041  -0.00717   0.00075  -0.01226
  53        3PY         0.00003   0.00139   0.00350   0.00195  -0.00207
  54        3PZ         0.00000  -0.00000   0.00000   0.00000  -0.00000
  55        4XX        -0.00001  -0.00021  -0.00113   0.00041  -0.00218
  56        4YY        -0.00034   0.00006  -0.00053  -0.00133  -0.00393
  57        4ZZ        -0.00003  -0.00003   0.00056   0.00040  -0.00025
  58        4XY         0.00013  -0.00015   0.00165  -0.00135   0.00007
  59        4XZ        -0.00000   0.00000  -0.00000   0.00000   0.00000
  60        4YZ         0.00000  -0.00000   0.00000  -0.00000   0.00000
  61 5   N  1S         -0.00005   0.00018   0.99957  -0.00328   0.01375
  62        2S         -0.00022   0.00030   0.01157   0.00274  -0.01163
  63        2PX         0.00055   0.00027   0.01536  -0.00330   0.01315
  64        2PY        -0.00039   0.00049  -0.01290   0.00361  -0.01259
  65        2PZ        -0.00000   0.00000  -0.00000   0.00000   0.00000
  66        3S         -0.00118   0.00094  -0.01439   0.00406  -0.00627
  67        3PX         0.00081   0.00003   0.00785  -0.00228   0.00593
  68        3PY        -0.00055   0.00009  -0.01051   0.00368  -0.00447
  69        3PZ        -0.00000   0.00000  -0.00000   0.00000   0.00000
  70        4XX        -0.00001  -0.00002  -0.00312   0.00004  -0.00013
  71        4YY         0.00001  -0.00007  -0.00470   0.00016  -0.00205
  72        4ZZ         0.00001   0.00001  -0.00274  -0.00026   0.00035
  73        4XY         0.00005  -0.00006   0.00166  -0.00035   0.00165
  74        4XZ        -0.00000   0.00000  -0.00000   0.00000   0.00000
  75        4YZ        -0.00000   0.00000  -0.00000   0.00000   0.00000
  76 6   H  1S         -0.00881   0.00053   0.00079   0.00254  -0.00069
  77        2S          0.00117  -0.00022   0.00089   0.00046  -0.00090
  78 7   H  1S          0.00039   0.00002   0.00067  -0.00005   0.00155
  79        2S         -0.00031  -0.00018   0.00130   0.00060   0.00688
  80 8   H  1S          0.00039   0.00002   0.00067  -0.00005   0.00155
  81        2S         -0.00031  -0.00018   0.00130   0.00060   0.00688
  82 9   H  1S          0.00007   0.00019   0.00097  -0.00015   0.00058
  83        2S          0.00003  -0.00038   0.00355  -0.00005   0.00365
  84 10  H  1S          0.00007   0.00019   0.00097  -0.00015   0.00058
  85        2S          0.00003  -0.00038   0.00355  -0.00005   0.00365
                           6         7         8         9        10
                           O         O         O         O         O
     Eigenvalues --     0.00000   0.00000   0.00000   0.00000   0.00000
   1 1   C  1S         -0.00000  -0.00307  -0.00000  -0.01538   0.00000
   2        2S          0.00000   0.00455   0.00000   0.04400  -0.00000
   3        2PX         0.00000  -0.01091  -0.00000  -0.00964   0.00000
   4        2PY        -0.00000  -0.00575  -0.00000  -0.05653   0.00000
   5        2PZ         0.25329   0.00000  -0.06819  -0.00000   0.00452
   6        3S         -0.00000   0.05002   0.00000   0.09167  -0.00000
   7        3PX         0.00000  -0.01737  -0.00000   0.00684   0.00000
   8        3PY        -0.00000  -0.02054   0.00000  -0.06121   0.00000
   9        3PZ         0.12581   0.00000  -0.04327  -0.00000  -0.02545
  10        4XX         0.00000   0.00162  -0.00000  -0.00677   0.00000
  11        4YY        -0.00000  -0.00290   0.00000   0.00243  -0.00000
  12        4ZZ        -0.00000   0.00004  -0.00000  -0.00045   0.00000
  13        4XY        -0.00000   0.00189   0.00000  -0.00788  -0.00000
  14        4XZ        -0.00699  -0.00000   0.00391   0.00000  -0.01527
  15        4YZ         0.01201   0.00000  -0.01784  -0.00000  -0.01479
  16 2   O  1S         -0.00000   0.00003  -0.00000   0.00590   0.00000
  17        2S          0.00000  -0.00116   0.00000  -0.01265  -0.00000
  18        2PX         0.00000  -0.00060   0.00000   0.02131  -0.00000
  19        2PY        -0.00000   0.00044   0.00000   0.01553  -0.00000
  20        2PZ         0.25068   0.00000  -0.07711  -0.00000  -0.17016
  21        3S          0.00000   0.00378   0.00000  -0.03704  -0.00000
  22        3PX         0.00000  -0.00086   0.00000   0.02528  -0.00000
  23        3PY        -0.00000   0.00210   0.00000   0.02407  -0.00000
  24        3PZ         0.16908   0.00000  -0.05314  -0.00000  -0.13045
  25        4XX        -0.00000  -0.00101  -0.00000  -0.00049   0.00000
  26        4YY         0.00000  -0.00004  -0.00000   0.00140  -0.00000
  27        4ZZ         0.00000  -0.00034   0.00000   0.00098  -0.00000
  28        4XY         0.00000  -0.00023  -0.00000  -0.00025   0.00000
  29        4XZ        -0.01827  -0.00000   0.00537   0.00000   0.00914
  30        4YZ        -0.00309  -0.00000   0.00010   0.00000   0.00187
  31 3   O  1S         -0.00000   0.00181   0.00000  -0.00257  -0.00000
  32        2S          0.00000  -0.00323  -0.00000   0.00040   0.00000
  33        2PX        -0.00000  -0.00203   0.00000   0.00342  -0.00000
  34        2PY        -0.00000   0.00475  -0.00000  -0.00850   0.00000
  35        2PZ         0.41398   0.00000  -0.29542  -0.00000  -0.05198
  36        3S          0.00000  -0.02048  -0.00000   0.03193   0.00000
  37        3PX         0.00000  -0.00261   0.00000   0.00706  -0.00000
  38        3PY        -0.00000   0.00854  -0.00000  -0.01822   0.00000
  39        3PZ         0.26583   0.00000  -0.20233  -0.00000  -0.03261
  40        4XX        -0.00000   0.00001   0.00000  -0.00315   0.00000
  41        4YY        -0.00000   0.00179  -0.00000  -0.00093  -0.00000
  42        4ZZ        -0.00000   0.00007  -0.00000  -0.00224   0.00000
  43        4XY        -0.00000   0.00020  -0.00000  -0.00210   0.00000
  44        4XZ         0.02369   0.00000  -0.01524  -0.00000  -0.00305
  45        4YZ        -0.00492  -0.00000   0.00085   0.00000  -0.00179
  46 4   C  1S          0.00000   0.04371  -0.00000   0.13234   0.00000
  47        2S         -0.00000  -0.09149  -0.00000  -0.24854  -0.00000
  48        2PX         0.00000  -0.02988  -0.00000   0.33895  -0.00000
  49        2PY        -0.00000   0.07303   0.00000   0.04168  -0.00000
  50        2PZ         0.18342   0.00000   0.23982  -0.00000   0.36056
  51        3S         -0.00000  -0.16339   0.00000  -0.31414  -0.00000
  52        3PX         0.00000  -0.05028  -0.00000   0.16468  -0.00000
  53        3PY        -0.00000   0.02914   0.00000  -0.02449  -0.00000
  54        3PZ         0.09471   0.00000   0.15983  -0.00000   0.22066
  55        4XX         0.00000   0.00189  -0.00000  -0.00271   0.00000
  56        4YY         0.00000   0.00252  -0.00000   0.01923  -0.00000
  57        4ZZ        -0.00000  -0.00384   0.00000  -0.03308   0.00000
  58        4XY        -0.00000  -0.00193   0.00000   0.00217  -0.00000
  59        4XZ        -0.00710  -0.00000  -0.00801   0.00000  -0.03705
  60        4YZ         0.00666   0.00000  -0.00505  -0.00000   0.01247
  61 5   N  1S          0.00000  -0.16513  -0.00000   0.01802  -0.00000
  62        2S         -0.00000   0.34834   0.00000  -0.04011   0.00000
  63        2PX        -0.00000   0.26794   0.00000  -0.02927  -0.00000
  64        2PY         0.00000  -0.06919  -0.00000   0.07988  -0.00000
  65        2PZ         0.11723  -0.00000   0.35481  -0.00000  -0.29839
  66        3S         -0.00000   0.41755   0.00000  -0.01830   0.00000
  67        3PX        -0.00000   0.14198   0.00000  -0.02992  -0.00000
  68        3PY         0.00000  -0.02666  -0.00000   0.05483  -0.00000
  69        3PZ         0.05278  -0.00000   0.19260  -0.00000  -0.20934
  70        4XX        -0.00000   0.01041   0.00000  -0.00993   0.00000
  71        4YY         0.00000  -0.01824  -0.00000   0.00823  -0.00000
  72        4ZZ        -0.00000   0.02487   0.00000  -0.00548  -0.00000
  73        4XY        -0.00000   0.02120   0.00000   0.00126  -0.00000
  74        4XZ         0.00642  -0.00000   0.02376  -0.00000  -0.03011
  75        4YZ         0.00984  -0.00000   0.02576  -0.00000  -0.01700
  76 6   H  1S         -0.00000   0.00443  -0.00000  -0.00242   0.00000
  77        2S         -0.00000   0.00707   0.00000   0.00616  -0.00000
  78 7   H  1S          0.07658  -0.02284   0.10354  -0.20925   0.18925
  79        2S          0.02403   0.00348   0.02811  -0.08248   0.12463
  80 8   H  1S         -0.07658  -0.02284  -0.10354  -0.20924  -0.18925
  81        2S         -0.02403   0.00348  -0.02811  -0.08248  -0.12463
  82 9   H  1S          0.05356   0.18069   0.16388  -0.02022  -0.15147
  83        2S          0.02402   0.03388   0.06829  -0.02144  -0.09656
  84 10  H  1S         -0.05356   0.18069  -0.16388  -0.02022   0.15147
  85        2S         -0.02403   0.03388  -0.06829  -0.02144   0.09656
                          11        12        13        14        15
                           O         O         O         O         O
     Eigenvalues --     0.00000   0.00000   0.00000   0.00000   0.00000
   1 1   C  1S         -0.00000   0.01877   0.01124   0.03521   0.06897
   2        2S          0.00000  -0.05020  -0.02317  -0.12816  -0.29549
   3        2PX        -0.00000   0.02688   0.02819  -0.17410   0.14361
   4        2PY        -0.00000   0.06632   0.03107  -0.04608   0.37345
   5        2PZ         0.10996  -0.00000  -0.00000  -0.00000  -0.00000
   6        3S          0.00000  -0.14438  -0.09019  -0.14732  -0.25203
   7        3PX        -0.00000   0.10265   0.04620  -0.07373   0.08455
   8        3PY        -0.00000   0.04609   0.03569  -0.01428   0.11472
   9        3PZ         0.10862  -0.00000  -0.00000  -0.00000   0.00000
  10        4XX        -0.00000  -0.00037  -0.00429  -0.00287   0.01212
  11        4YY         0.00000   0.00128   0.00868   0.00166  -0.01827
  12        4ZZ        -0.00000  -0.00191  -0.00034   0.00115   0.00920
  13        4XY         0.00000  -0.00349  -0.00826  -0.00249  -0.02340
  14        4XZ         0.03880  -0.00000   0.00000  -0.00000   0.00000
  15        4YZ        -0.00909  -0.00000  -0.00000   0.00000  -0.00000
  16 2   O  1S         -0.00000   0.00281   0.00193  -0.10754  -0.00419
  17        2S          0.00000  -0.00012  -0.00155   0.44995   0.01729
  18        2PX         0.00000  -0.00885   0.00532   0.32503  -0.04017
  19        2PY         0.00000   0.00888   0.00665   0.07346  -0.02019
  20        2PZ         0.49333  -0.00000   0.00000  -0.00000   0.00000
  21        3S          0.00000  -0.04643  -0.02607   0.55078   0.00686
  22        3PX         0.00000   0.00886   0.01170   0.17866  -0.02924
  23        3PY         0.00000   0.00551   0.00489   0.04241  -0.03550
  24        3PZ         0.36115  -0.00000   0.00000  -0.00000   0.00000
  25        4XX        -0.00000   0.00064   0.00117  -0.02109   0.00174
  26        4YY         0.00000   0.00399   0.00214   0.00664   0.00073
  27        4ZZ         0.00000   0.00171   0.00176   0.00478   0.00047
  28        4XY        -0.00000  -0.00181  -0.00048  -0.00554  -0.00291
  29        4XZ        -0.02882   0.00000   0.00000   0.00000  -0.00000
  30        4YZ        -0.00555   0.00000  -0.00000   0.00000  -0.00000
  31 3   O  1S         -0.00000  -0.00702  -0.00645  -0.00236  -0.01278
  32        2S          0.00000   0.00797   0.01254   0.01077   0.02103
  33        2PX        -0.00000   0.01689   0.01746   0.01864   0.03578
  34        2PY        -0.00000  -0.01535  -0.01616  -0.01165  -0.02229
  35        2PZ        -0.38540   0.00000  -0.00000   0.00000  -0.00000
  36        3S         -0.00000   0.08444   0.05741   0.00091   0.09921
  37        3PX        -0.00000   0.02045   0.01347   0.02510   0.02052
  38        3PY        -0.00000  -0.03245  -0.02683  -0.00714  -0.04340
  39        3PZ        -0.29688   0.00000  -0.00000   0.00000  -0.00000
  40        4XX        -0.00000  -0.00014   0.00024  -0.00187   0.00373
  41        4YY         0.00000  -0.00607  -0.00499   0.00526  -0.01399
  42        4ZZ         0.00000  -0.00256  -0.00068   0.00088  -0.00102
  43        4XY        -0.00000  -0.00076  -0.00079   0.00068   0.00276
  44        4XZ        -0.01499   0.00000  -0.00000   0.00000  -0.00000
  45        4YZ        -0.00148  -0.00000   0.00000   0.00000   0.00000
  46 4   C  1S          0.00000  -0.02738  -0.03765  -0.00422   0.03012
  47        2S         -0.00000   0.04655   0.18895   0.00845  -0.17242
  48        2PX         0.00000   0.00144   0.25432   0.01002  -0.14086
  49        2PY         0.00000  -0.01365  -0.24599   0.01880  -0.29615
  50        2PZ         0.02461   0.00000  -0.00000   0.00000  -0.00000
  51        3S         -0.00000   0.10147   0.16868   0.03009  -0.10532
  52        3PX        -0.00000  -0.00329   0.12743   0.01478  -0.06197
  53        3PY         0.00000   0.06265  -0.05863   0.01897  -0.07052
  54        3PZ         0.01108   0.00000  -0.00000   0.00000  -0.00000
  55        4XX        -0.00000   0.01934   0.01683  -0.00182   0.00742
  56        4YY         0.00000  -0.02768   0.00632   0.00242  -0.02725
  57        4ZZ        -0.00000   0.00754  -0.01037  -0.00091   0.01053
  58        4XY         0.00000  -0.00016  -0.02552  -0.00255  -0.01917
  59        4XZ        -0.00189  -0.00000   0.00000  -0.00000   0.00000
  60        4YZ         0.00462   0.00000  -0.00000   0.00000  -0.00000
  61 5   N  1S          0.00000   0.07250  -0.04139  -0.00041  -0.00436
  62        2S         -0.00000  -0.18590   0.21128   0.00143   0.00805
  63        2PX         0.00000   0.31688  -0.25097  -0.00558  -0.01589
  64        2PY         0.00000   0.45911   0.24625   0.00629   0.01587
  65        2PZ        -0.11640  -0.00000   0.00000  -0.00000   0.00000
  66        3S         -0.00000  -0.24078   0.18320  -0.00358   0.02651
  67        3PX         0.00000   0.22646  -0.13260  -0.00677  -0.00893
  68        3PY         0.00000   0.38326   0.14896   0.00495   0.04110
  69        3PZ        -0.08036  -0.00000   0.00000  -0.00000   0.00000
  70        4XX        -0.00000  -0.00624  -0.00237  -0.00030   0.00233
  71        4YY        -0.00000   0.02231   0.02492   0.00131  -0.00475
  72        4ZZ         0.00000  -0.00944  -0.00856  -0.00032   0.00030
  73        4XY         0.00000   0.02143  -0.02389  -0.00023   0.00058
  74        4XZ        -0.00936  -0.00000   0.00000  -0.00000   0.00000
  75        4YZ        -0.00672  -0.00000   0.00000  -0.00000   0.00000
  76 6   H  1S         -0.00000  -0.01142  -0.01074   0.00554  -0.02186
  77        2S          0.00000  -0.01437  -0.01355   0.01283  -0.03079
  78 7   H  1S          0.01127   0.04117  -0.01146  -0.00496   0.01461
  79        2S         -0.00483   0.03940  -0.02311  -0.01191   0.04814
  80 8   H  1S         -0.01127   0.04117  -0.01146  -0.00496   0.01461
  81        2S          0.00483   0.03940  -0.02311  -0.01191   0.04814
  82 9   H  1S         -0.05512   0.08701  -0.01275  -0.00214   0.00127
  83        2S         -0.01140   0.04606  -0.04970   0.00450   0.00720
  84 10  H  1S          0.05512   0.08701  -0.01275  -0.00214   0.00127
  85        2S          0.01140   0.04606  -0.04970   0.00450   0.00720
                          16        17        18        19        20
                           O         O         O         O         O
     Eigenvalues --     0.00000   0.00000   0.00000   0.00000   0.00000
   1 1   C  1S         -0.02149  -0.00608   0.03595   0.00717  -0.03954
   2        2S          0.08116   0.01802  -0.21260  -0.02310   0.20069
   3        2PX        -0.05782   0.00595  -0.32561   0.04593  -0.19654
   4        2PY         0.07294   0.03455  -0.08136  -0.03117   0.24270
   5        2PZ         0.00000   0.00000  -0.00000  -0.00000  -0.00000
   6        3S          0.04610   0.01888  -0.13414  -0.02086   0.00973
   7        3PX        -0.01067  -0.02677  -0.02544   0.00457   0.01705
   8        3PY         0.02425   0.13709  -0.00972  -0.01063   0.00776
   9        3PZ         0.00000   0.00000  -0.00000  -0.00000  -0.00000
  10        4XX        -0.01585  -0.00927  -0.03008  -0.02104   0.00986
  11        4YY         0.01767   0.00868   0.01494   0.01678   0.01041
  12        4ZZ        -0.00234   0.00198   0.00914   0.00245  -0.01733
  13        4XY        -0.00485   0.03386  -0.01244   0.00346  -0.03956
  14        4XZ        -0.00000  -0.00000  -0.00000   0.00000  -0.00000
  15        4YZ         0.00000   0.00000   0.00000  -0.00000   0.00000
  16 2   O  1S          0.00537   0.00253   0.04512   0.00171   0.00108
  17        2S         -0.01597  -0.00444  -0.27285  -0.00680  -0.00276
  18        2PX         0.04588  -0.11805   0.32293   0.02201   0.01862
  19        2PY        -0.00516   0.63972   0.07997   0.00277   0.01981
  20        2PZ         0.00000   0.00000  -0.00000   0.00000  -0.00000
  21        3S         -0.02448  -0.01288  -0.21466  -0.00483  -0.01479
  22        3PX         0.04135  -0.07918   0.21089   0.01735   0.01630
  23        3PY        -0.00765   0.44333   0.05369   0.00398   0.01267
  24        3PZ         0.00000   0.00000  -0.00000   0.00000  -0.00000
  25        4XX        -0.00136   0.00950  -0.03696  -0.00053   0.00455
  26        4YY         0.00086  -0.00840   0.00692   0.00066  -0.00066
  27        4ZZ         0.00064   0.00004   0.00683  -0.00027   0.00140
  28        4XY        -0.00099  -0.02591  -0.00887   0.00078  -0.00432
  29        4XZ        -0.00000  -0.00000   0.00000  -0.00000   0.00000
  30        4YZ        -0.00000  -0.00000   0.00000  -0.00000   0.00000
  31 3   O  1S          0.09380   0.01535  -0.00676  -0.04423  -0.06202
  32        2S         -0.37812  -0.03348   0.02457   0.20256   0.28038
  33        2PX         0.47833  -0.06118   0.03146   0.19594   0.29524
  34        2PY         0.06934   0.02618  -0.01814   0.46109  -0.26411
  35        2PZ         0.00000   0.00000   0.00000  -0.00000   0.00000
  36        3S         -0.41116  -0.14583   0.03095   0.16663   0.25306
  37        3PX         0.31119  -0.07315   0.03019   0.14929   0.17954
  38        3PY         0.06336   0.02659  -0.01733   0.29122  -0.15406
  39        3PZ         0.00000   0.00000   0.00000  -0.00000   0.00000
  40        4XX         0.02028   0.00317  -0.00642   0.00839   0.02244
  41        4YY        -0.02473   0.00684   0.00647   0.03412  -0.00154
  42        4ZZ        -0.01302   0.00414  -0.00064  -0.00766  -0.00569
  43        4XY         0.00522   0.00005   0.00087   0.02530  -0.02008
  44        4XZ         0.00000   0.00000   0.00000  -0.00000  -0.00000
  45        4YZ        -0.00000  -0.00000  -0.00000  -0.00000   0.00000
  46 4   C  1S         -0.00658  -0.00846  -0.00831  -0.00727   0.00853
  47        2S          0.01167   0.01361   0.02294   0.01301  -0.01871
  48        2PX        -0.00365   0.01991   0.01332   0.00867  -0.01341
  49        2PY         0.02344   0.03186   0.03230   0.02481  -0.02351
  50        2PZ         0.00000   0.00000   0.00000   0.00000  -0.00000
  51        3S          0.04538   0.12949   0.05560   0.04989  -0.03028
  52        3PX         0.00798   0.04494   0.00893   0.00339  -0.00619
  53        3PY         0.00313   0.05044   0.03890   0.02534  -0.01741
  54        3PZ         0.00000   0.00000   0.00000   0.00000  -0.00000
  55        4XX        -0.00224  -0.00158  -0.00422  -0.00129  -0.00094
  56        4YY         0.00214   0.00098   0.00262   0.00014   0.00575
  57        4ZZ         0.00049  -0.00116  -0.00091   0.00045   0.00048
  58        4XY         0.00182  -0.00093  -0.00444   0.00259  -0.00258
  59        4XZ        -0.00000  -0.00000  -0.00000   0.00000   0.00000
  60        4YZ         0.00000   0.00000   0.00000  -0.00000  -0.00000
  61 5   N  1S          0.00132  -0.00299  -0.00110   0.00182  -0.00108
  62        2S         -0.00071   0.01213   0.00395  -0.00509   0.00778
  63        2PX         0.00485   0.01098   0.00021   0.00564  -0.00872
  64        2PY        -0.01008   0.01500   0.01188  -0.00868   0.00216
  65        2PZ        -0.00000  -0.00000  -0.00000   0.00000  -0.00000
  66        3S         -0.02032   0.00199   0.00692  -0.00881  -0.00010
  67        3PX         0.00669   0.01397  -0.00541   0.00209  -0.00574
  68        3PY        -0.01441  -0.00634   0.00726  -0.01156  -0.00033
  69        3PZ        -0.00000  -0.00000  -0.00000   0.00000  -0.00000
  70        4XX         0.00065   0.00048  -0.00046  -0.00030   0.00158
  71        4YY        -0.00016  -0.00105   0.00037   0.00003  -0.00057
  72        4ZZ         0.00101   0.00224  -0.00013  -0.00017   0.00156
  73        4XY         0.00070  -0.00111  -0.00081   0.00011  -0.00015
  74        4XZ        -0.00000  -0.00000  -0.00000   0.00000  -0.00000
  75        4YZ        -0.00000  -0.00000  -0.00000   0.00000  -0.00000
  76 6   H  1S          0.00162   0.00309   0.00859   0.26492  -0.04395
  77        2S          0.02937   0.02099   0.01126   0.04384  -0.02584
  78 7   H  1S          0.00394  -0.00473  -0.00319   0.00129  -0.00240
  79        2S         -0.00815  -0.01019  -0.01382  -0.00608   0.00190
  80 8   H  1S          0.00394  -0.00473  -0.00319   0.00129  -0.00240
  81        2S         -0.00815  -0.01019  -0.01382  -0.00608   0.00190
  82 9   H  1S          0.00063   0.00576   0.00042  -0.00048   0.00013
  83        2S          0.00273  -0.01600   0.00157   0.00152  -0.00028
  84 10  H  1S          0.00063   0.00576   0.00042  -0.00048   0.00013
  85        2S          0.00273  -0.01600   0.00157   0.00152  -0.00028
                          21        22        23        24        25
                           V         V         V         V         V
     Eigenvalues --     0.00000   0.00000   0.00000   0.00000   0.00000
   1 1   C  1S          0.00000  -0.02406   0.04615  -0.00000   0.03235
   2        2S         -0.00000   0.03438  -0.00162  -0.00000  -0.14951
   3        2PX         0.00000  -0.08410  -0.07733   0.00000   0.00768
   4        2PY         0.00000   0.08086   0.20218   0.00000  -0.36310
   5        2PZ         0.53605  -0.00000  -0.00000  -0.01040  -0.00000
   6        3S         -0.00000   0.26187  -1.01273   0.00000   0.82596
   7        3PX         0.00000   0.04093  -0.54821  -0.00000   0.13817
   8        3PY         0.00000   0.02346   0.61251   0.00000   1.15194
   9        3PZ         0.59823  -0.00000  -0.00000  -0.31981   0.00000
  10        4XX         0.00000   0.01457   0.01484  -0.00000   0.06022
  11        4YY        -0.00000  -0.01811  -0.01639  -0.00000   0.10456
  12        4ZZ         0.00000   0.00098  -0.01004   0.00000  -0.06507
  13        4XY        -0.00000   0.00326   0.03863  -0.00000   0.06730
  14        4XZ        -0.01365   0.00000   0.00000   0.00052   0.00000
  15        4YZ        -0.01208   0.00000   0.00000  -0.01262   0.00000
  16 2   O  1S         -0.00000   0.00606  -0.02784   0.00000   0.00394
  17        2S          0.00000   0.01143  -0.03015   0.00000   0.11174
  18        2PX        -0.00000   0.00140  -0.16496   0.00000  -0.02322
  19        2PY        -0.00000  -0.04714  -0.02276  -0.00000  -0.24042
  20        2PZ        -0.26674   0.00000  -0.00000   0.04615  -0.00000
  21        3S          0.00000  -0.12169   0.57196  -0.00000  -0.45610
  22        3PX         0.00000   0.07072  -0.30595   0.00000   0.23087
  23        3PY         0.00000  -0.04270  -0.22051  -0.00000  -0.09547
  24        3PZ        -0.35875   0.00000   0.00000   0.09290  -0.00000
  25        4XX        -0.00000  -0.00966   0.00324   0.00000  -0.03689
  26        4YY        -0.00000   0.00644  -0.02205   0.00000   0.02138
  27        4ZZ         0.00000   0.00496  -0.01905   0.00000   0.02943
  28        4XY         0.00000  -0.00532  -0.00809   0.00000  -0.02406
  29        4XZ        -0.01100   0.00000   0.00000  -0.00337  -0.00000
  30        4YZ        -0.00465   0.00000   0.00000  -0.00083   0.00000
  31 3   O  1S          0.00000   0.08615   0.01957   0.00000  -0.00004
  32        2S         -0.00000  -0.12884  -0.08693  -0.00000   0.07646
  33        2PX         0.00000  -0.04803   0.01380   0.00000  -0.07032
  34        2PY        -0.00000  -0.21870   0.14604   0.00000  -0.01291
  35        2PZ        -0.22675   0.00000   0.00000   0.07273  -0.00000
  36        3S         -0.00000  -0.97195  -0.16846  -0.00000  -0.53595
  37        3PX        -0.00000  -0.23315  -0.05937  -0.00000  -0.20324
  38        3PY        -0.00000  -0.44586   0.25437   0.00000  -0.02120
  39        3PZ        -0.26039   0.00000  -0.00000   0.07393  -0.00000
  40        4XX         0.00000   0.01546  -0.01324  -0.00000   0.02864
  41        4YY         0.00000   0.02869   0.00395  -0.00000  -0.04742
  42        4ZZ         0.00000   0.02583  -0.02403   0.00000   0.05588
  43        4XY        -0.00000  -0.01046   0.01132   0.00000   0.03848
  44        4XZ         0.00697  -0.00000  -0.00000   0.00286   0.00000
  45        4YZ        -0.02158   0.00000   0.00000   0.00616   0.00000
  46 4   C  1S         -0.00000   0.03427   0.02716   0.00000  -0.00287
  47        2S          0.00000  -0.03884  -0.01672  -0.00000   0.22062
  48        2PX         0.00000  -0.02390  -0.06005   0.00000   0.31703
  49        2PY         0.00000  -0.06333   0.22749   0.00000   0.66268
  50        2PZ        -0.04531  -0.00000   0.00000   0.34187   0.00000
  51        3S          0.00000  -0.43134  -0.43910  -0.00000   0.26783
  52        3PX         0.00000  -0.14152  -0.20489   0.00000  -0.41000
  53        3PY         0.00000   0.07692   1.38968   0.00000  -0.87495
  54        3PZ         0.11037  -0.00000   0.00000   1.14537  -0.00000
  55        4XX         0.00000  -0.00281  -0.01422   0.00000   0.02540
  56        4YY        -0.00000   0.00582   0.01684  -0.00000   0.08200
  57        4ZZ         0.00000  -0.00401  -0.01125   0.00000  -0.04159
  58        4XY        -0.00000  -0.01143  -0.04139  -0.00000   0.00980
  59        4XZ         0.02612  -0.00000  -0.00000   0.01866  -0.00000
  60        4YZ         0.02938  -0.00000   0.00000  -0.00633   0.00000
  61 5   N  1S          0.00000  -0.01230  -0.02207  -0.00000   0.00596
  62        2S         -0.00000   0.00540   0.02459   0.00000  -0.00085
  63        2PX         0.00000  -0.04084  -0.29614   0.00000   0.02912
  64        2PY        -0.00000   0.06443   0.12486   0.00000   0.20137
  65        2PZ        -0.00833   0.00000  -0.00000   0.17080   0.00000
  66        3S          0.00000   0.21465   0.26633   0.00000  -0.25666
  67        3PX         0.00000  -0.11385  -0.95931   0.00000   0.08178
  68        3PY        -0.00000   0.15000   0.42707   0.00000  -0.01324
  69        3PZ        -0.05729   0.00000   0.00000   0.41122   0.00000
  70        4XX        -0.00000  -0.00175  -0.01291  -0.00000  -0.01293
  71        4YY         0.00000  -0.00094   0.00963  -0.00000  -0.02748
  72        4ZZ        -0.00000  -0.00438   0.01084  -0.00000   0.01120
  73        4XY        -0.00000  -0.00173  -0.01436   0.00000   0.02285
  74        4XZ         0.00377  -0.00000  -0.00000  -0.01376   0.00000
  75        4YZ         0.00040   0.00000   0.00000   0.02142  -0.00000
  76 6   H  1S          0.00000   0.14685   0.04674  -0.00000  -0.14019
  77        2S          0.00000   1.41227  -0.35119  -0.00000  -0.00008
  78 7   H  1S         -0.10349  -0.01426  -0.03979  -0.04879  -0.14517
  79        2S         -0.28890   0.09666   0.10350  -1.27674   0.00084
  80 8   H  1S          0.10349  -0.01426  -0.03979   0.04879  -0.14517
  81        2S          0.28890   0.09666   0.10350   1.27674   0.00084
  82 9   H  1S          0.00883  -0.00551   0.00212  -0.05917   0.08123
  83        2S          0.03809   0.00871   0.63293  -0.80669   0.04206
  84 10  H  1S         -0.00883  -0.00551   0.00212   0.05917   0.08123
  85        2S         -0.03809   0.00871   0.63293   0.80669   0.04206
                          26        27        28        29        30
                           V         V         V         V         V
     Eigenvalues --     0.00000   0.00000   0.00000   0.00000   0.00000
   1 1   C  1S          0.01217   0.00000   0.01978   0.00000  -0.00440
   2        2S         -0.06149   0.00000   0.26940   0.00000  -0.54109
   3        2PX         0.05641   0.00000  -0.20479   0.00000   0.32869
   4        2PY        -0.01597  -0.00000  -0.14618  -0.00000  -0.67107
   5        2PZ        -0.00000   0.33685  -0.00000  -0.11632   0.00000
   6        3S          0.06747   0.00000  -0.65854  -0.00000   0.73407
   7        3PX        -0.87528  -0.00000   0.46250  -0.00000  -1.32142
   8        3PY         0.16231   0.00000   1.26649   0.00000   1.78048
   9        3PZ         0.00000  -0.83879   0.00000   0.39164  -0.00000
  10        4XX        -0.00021  -0.00000   0.07608  -0.00000   0.00459
  11        4YY        -0.02444   0.00000   0.09810   0.00000  -0.10516
  12        4ZZ         0.00172  -0.00000  -0.03521  -0.00000   0.00606
  13        4XY        -0.00737  -0.00000  -0.10384   0.00000  -0.08198
  14        4XZ         0.00000   0.00914  -0.00000   0.01135   0.00000
  15        4YZ         0.00000  -0.04097  -0.00000   0.03618   0.00000
  16 2   O  1S         -0.00736   0.00000   0.00240  -0.00000  -0.00297
  17        2S         -0.03155  -0.00000  -0.06414  -0.00000   0.04278
  18        2PX        -0.00553   0.00000   0.00451  -0.00000  -0.03293
  19        2PY         0.01817  -0.00000   0.08514   0.00000  -0.03536
  20        2PZ        -0.00000   0.05529  -0.00000   0.03804   0.00000
  21        3S          0.41003   0.00000  -0.09123   0.00000   0.19430
  22        3PX        -0.14324   0.00000   0.08434  -0.00000   0.01195
  23        3PY        -0.03484   0.00000  -0.26157  -0.00000  -0.27781
  24        3PZ        -0.00000   0.10138   0.00000  -0.09943   0.00000
  25        4XX        -0.00129   0.00000  -0.05328  -0.00000  -0.01149
  26        4YY         0.01075  -0.00000  -0.01611  -0.00000   0.03041
  27        4ZZ        -0.00500  -0.00000  -0.01376  -0.00000   0.03315
  28        4XY         0.01710   0.00000   0.00426  -0.00000   0.07215
  29        4XZ        -0.00000  -0.01383   0.00000  -0.01415  -0.00000
  30        4YZ         0.00000  -0.03625  -0.00000   0.02426  -0.00000
  31 3   O  1S         -0.00129  -0.00000  -0.00464  -0.00000   0.01915
  32        2S          0.20238   0.00000  -0.70514  -0.00000   0.08183
  33        2PX        -0.03692   0.00000   0.31027  -0.00000   0.15357
  34        2PY        -0.12396  -0.00000  -0.39937   0.00000  -0.05410
  35        2PZ        -0.00000   0.16025   0.00000   0.19189   0.00000
  36        3S         -0.65258  -0.00000   1.28176   0.00000  -1.29675
  37        3PX         0.00282   0.00000  -0.73598   0.00000  -0.30980
  38        3PY         0.17300  -0.00000   0.55595  -0.00000   0.21709
  39        3PZ         0.00000  -0.00038  -0.00000  -0.32152   0.00000
  40        4XX         0.06301   0.00000  -0.20414  -0.00000  -0.04319
  41        4YY         0.02507  -0.00000  -0.17843  -0.00000  -0.00550
  42        4ZZ         0.08495   0.00000  -0.28620  -0.00000   0.10360
  43        4XY        -0.02036   0.00000   0.06307   0.00000   0.11830
  44        4XZ         0.00000  -0.01416   0.00000   0.02635   0.00000
  45        4YZ         0.00000  -0.02184  -0.00000  -0.01039  -0.00000
  46 4   C  1S          0.00957  -0.00000   0.01125  -0.00000  -0.00951
  47        2S         -0.31150   0.00000  -0.56723  -0.00000  -0.12460
  48        2PX        -0.79737   0.00000   0.18967   0.00000  -0.21398
  49        2PY         0.47336   0.00000   0.15837  -0.00000  -0.47897
[...]
 Electronic      0.200000D+01          0.301030          0.693147
 Translational   0.255461D+08          7.407324         17.055994
 Rotational      0.918457D+05          4.963059         11.427866
 -------------------------------------------------------------------
 Center     Atomic                   Forces (Hartrees/Bohr)
 Number     Number              X              Y              Z
 -------------------------------------------------------------------
      1        6           0.165471143   -0.161748502    0.000000060
      2        8          -0.026836681    0.006088146   -0.000000093
      3        8          -0.095754549    0.174179419    0.000000213
      4        6           0.006999268   -0.027804920   -0.000000024
      5        7           0.012235064    0.080989678   -0.000000005
      6        1          -0.043020526   -0.029154888   -0.000000112
      7        1           0.003342314   -0.005683594   -0.009532186
      8        1           0.003342305   -0.005683553    0.009532186
      9        1          -0.012889192   -0.015590861   -0.013959544
     10        1          -0.012889146   -0.015590925    0.013959505
 -------------------------------------------------------------------
 Cartesian Forces:  Max     0.174179419 RMS     0.059306177
 Z-matrix is all fixed cartesians, so copy forces.
 Force constants in Cartesian coordinates: 
                1             2             3             4             5 
      1  0.100586D+03
      2 -0.126020D+01  0.913700D+02
      3  0.000000D+00  0.239599D-05  0.356869D+02
      4 -0.389626D+02 -0.475945D+01 -0.118157D-05  0.306781D+02
      5 -0.667368D+01 -0.143011D+02  0.148712D-05  0.559091D+01  0.127540D+02
      6 -0.144956D-05  0.000000D+00 -0.980046D+01  0.136888D-05 -0.108379D-05
      7 -0.391511D+02  0.144457D+02  0.000000D+00  0.483913D+01 -0.137477D+01
      8  0.173924D+02 -0.368317D+02 -0.365481D-05 -0.150074D+01 -0.207550D+00
      9  0.137862D-05 -0.324711D-05 -0.150205D+02  0.000000D+00  0.000000D+00
     10 -0.245527D+02 -0.903650D+01  0.000000D+00  0.338886D+01  0.208627D+01
     11 -0.804959D+01 -0.392721D+02  0.000000D+00  0.240434D-02  0.975569D+00
     12  0.000000D+00  0.000000D+00 -0.133936D+02  0.000000D+00  0.000000D+00
     13  0.257994D+01  0.193497D+01  0.000000D+00 -0.625974D-01  0.403522D+00
     14 -0.148683D+01 -0.186436D+01  0.000000D+00  0.847447D+00  0.843140D+00
     15 -0.104069D-05  0.000000D+00  0.223453D+01  0.000000D+00  0.000000D+00
     16 -0.292932D+00 -0.356162D-01  0.000000D+00  0.605586D-01 -0.736934D-01
     17  0.469817D+00 -0.192291D+00  0.000000D+00 -0.231469D+00 -0.126256D-01
     18  0.000000D+00  0.000000D+00 -0.745172D-01  0.000000D+00  0.000000D+00
     19 -0.200813D+00 -0.542551D+00  0.700060D-01  0.303896D-01  0.108528D-01
     20 -0.105195D+00  0.458561D+00 -0.203041D+00  0.157786D-01 -0.401968D-02
     21  0.656722D+00  0.636633D+00  0.197613D+00  0.947243D-02  0.132016D-01
     22 -0.200813D+00 -0.542551D+00 -0.700060D-01  0.303896D-01  0.108528D-01
     23 -0.105195D+00  0.458561D+00  0.203041D+00  0.157786D-01 -0.401967D-02
     24 -0.656722D+00 -0.636633D+00  0.197613D+00 -0.947247D-02 -0.132016D-01
     25  0.974290D-01 -0.101898D+00  0.534847D-02 -0.112766D-02  0.986797D-02
     26 -0.907716D-01  0.872507D-01 -0.272307D-03  0.967302D-02 -0.216870D-01
     27  0.685730D-01 -0.484700D-01 -0.138292D-01 -0.643721D-02  0.194360D-01
     28  0.974290D-01 -0.101898D+00 -0.534836D-02 -0.112764D-02  0.986798D-02
     29 -0.907716D-01  0.872507D-01  0.272219D-03  0.967300D-02 -0.216870D-01
     30 -0.685730D-01  0.484701D-01 -0.138293D-01  0.643719D-02 -0.194360D-01
                6             7             8             9            10 
      6  0.110850D+02
      7  0.000000D+00  0.331509D+02
      8  0.000000D+00 -0.135012D+02  0.368081D+02
      9 -0.718486D+00 -0.132022D-05  0.291814D-05  0.157400D+02
     10  0.000000D+00  0.138436D+01 -0.999025D+00  0.000000D+00  0.405483D+02
     11  0.000000D+00  0.169964D+01  0.210297D+01  0.000000D+00 -0.972507D+00
     12 -0.267843D+00  0.000000D+00  0.102291D-05  0.721191D+00 -0.107571D-05
     13  0.000000D+00  0.132773D+00 -0.760018D+00  0.000000D+00 -0.177508D+02
     14  0.000000D+00 -0.562336D+00  0.993149D+00  0.000000D+00  0.860839D+01
     15 -0.232560D+00  0.000000D+00  0.000000D+00 -0.232804D+00  0.000000D+00
     16  0.000000D+00 -0.516462D+00 -0.351695D+00  0.000000D+00  0.284311D-01
     17  0.000000D+00 -0.709885D+00 -0.255186D+01  0.000000D+00  0.742781D-01
     18 -0.384356D-01  0.000000D+00  0.000000D+00 -0.524950D+00  0.000000D+00
     19  0.233579D-02  0.885402D-01 -0.164367D+00  0.493119D-01 -0.121414D+01
     20  0.835837D-02 -0.529738D-02 -0.149437D+00  0.998494D-01  0.744454D-01
     21 -0.438889D-02  0.509851D-02  0.202276D+00  0.146428D-01 -0.262300D+00
     22 -0.233578D-02  0.885403D-01 -0.164367D+00 -0.493118D-01 -0.121414D+01
     23 -0.835836D-02 -0.529736D-02 -0.149437D+00 -0.998495D-01  0.744456D-01
     24 -0.438887D-02 -0.509850D-02 -0.202276D+00  0.146428D-01  0.262300D+00
     25 -0.225140D-03 -0.836542D-02  0.244856D-01 -0.259715D-02 -0.309072D+00
     26  0.781176D-02  0.671130D-02 -0.708370D-02  0.931884D-02  0.451037D-01
     27 -0.924166D-02  0.523828D-03  0.141790D-01  0.309524D-02 -0.582956D+00
     28  0.225122D-03 -0.836543D-02  0.244855D-01  0.259703D-02 -0.309072D+00
     29 -0.781174D-02  0.671129D-02 -0.708371D-02 -0.931877D-02  0.451037D-01
     30 -0.924165D-02 -0.523821D-03 -0.141790D-01  0.309532D-02  0.582956D+00
               11            12            13            14            15 
     11  0.562614D+02
     12  0.000000D+00  0.268177D+02
     13  0.584390D+01  0.000000D+00  0.182054D+02
     14 -0.175566D+02  0.000000D+00 -0.720383D+01  0.194744D+02
     15  0.000000D+00 -0.964196D+01  0.000000D+00  0.000000D+00  0.110793D+02
     16  0.368788D-01  0.000000D+00  0.198167D-02  0.213995D-01  0.000000D+00
     17  0.221699D+00  0.000000D+00 -0.841060D-03  0.724596D-01  0.000000D+00
     18  0.000000D+00  0.223501D-02  0.000000D+00  0.000000D+00  0.203045D-02
     19  0.225725D+00  0.727136D+00 -0.203145D+00  0.384270D+00 -0.108296D+00
     20 -0.151266D+01  0.823309D-01 -0.464396D-01  0.291081D+00  0.156802D+00
     21 -0.259413D+00 -0.219745D+01  0.605881D+00 -0.436152D+00  0.186319D+00
     22  0.225725D+00 -0.727136D+00 -0.203145D+00  0.384270D+00  0.108296D+00
     23 -0.151266D+01 -0.823307D-01 -0.464396D-01  0.291081D+00 -0.156802D+00
     24  0.259413D+00 -0.219745D+01 -0.605881D+00  0.436152D+00  0.186319D+00
     25  0.493911D+00 -0.579012D-01 -0.135021D+01 -0.496392D+00 -0.640346D+00
     26  0.146186D+00 -0.976101D-01 -0.624174D-01 -0.127218D+01 -0.486523D-01
     27  0.426359D+00  0.785937D-01 -0.508448D+00 -0.610238D+00 -0.179061D+01
     28  0.493912D+00  0.579012D-01 -0.135021D+01 -0.496392D+00  0.640346D+00
     29  0.146186D+00  0.976101D-01 -0.624174D-01 -0.127218D+01  0.486524D-01
     30 -0.426359D+00  0.785937D-01  0.508448D+00  0.610238D+00 -0.179061D+01
               16            17            18            19            20 
     16  0.706717D+00
     17  0.396011D+00  0.246765D+01
     18  0.000000D+00  0.000000D+00  0.629474D+00
     19  0.106869D-01  0.128673D-01  0.407227D-03  0.137125D+01
     20 -0.454799D-03 -0.107239D-01  0.359369D-02  0.103412D+00  0.873495D+00
     21 -0.663040D-02 -0.792077D-02  0.157652D-02 -0.862510D+00 -0.151471D+00
     22  0.106869D-01  0.128672D-01 -0.407230D-03  0.406526D-01  0.223824D-02
     23 -0.454814D-03 -0.107239D-01 -0.359369D-02  0.223824D-02  0.616371D-01
     24  0.663037D-02  0.792071D-02  0.157652D-02  0.109083D+00  0.771344D-02
     25 -0.483445D-02 -0.118227D-01 -0.247902D-04  0.646337D-01 -0.353069D-01
     26  0.381244D-02  0.820650D-02  0.323085D-03 -0.263919D-01 -0.481929D-02
     27 -0.289558D-02 -0.721009D-02  0.505415D-03  0.274175D-01 -0.839690D-02
     28 -0.483444D-02 -0.118227D-01  0.248222D-04  0.119415D-01 -0.318136D-02
     29  0.381244D-02  0.820650D-02 -0.323090D-03 -0.605550D-02 -0.311269D-02
     30  0.289557D-02  0.721007D-02  0.505393D-03 -0.148907D-01  0.426178D-02
               21            22            23            24            25 
     21  0.189374D+01
     22 -0.109083D+00  0.137125D+01
     23 -0.771344D-02  0.103412D+00  0.873495D+00
     24 -0.934687D-01  0.862510D+00  0.151471D+00  0.189374D+01
     25 -0.191815D-01  0.119415D-01 -0.318136D-02  0.174687D-01  0.142805D+01
     26  0.453497D-02 -0.605551D-02 -0.311269D-02 -0.602584D-02  0.126406D+00
     27 -0.764645D-02  0.148907D-01 -0.426178D-02  0.906338D-02  0.843395D+00
     28 -0.174687D-01  0.646337D-01 -0.353069D-01  0.191815D-01  0.715560D-01
     29  0.602584D-02 -0.263919D-01 -0.481928D-02 -0.453497D-02 -0.607047D-02
     30  0.906337D-02 -0.274175D-01  0.839690D-02 -0.764646D-02 -0.145937D+00
               26            27            28            29            30 
     26  0.955622D+00
     27  0.174587D+00  0.190881D+01
     28 -0.607049D-02  0.145937D+00  0.142805D+01
     29  0.111618D+00  0.440155D-01  0.126406D+00  0.955622D+00
     30 -0.440155D-01 -0.178741D+00 -0.843395D+00 -0.174588D+00  0.190881D+01
 Leave Link  716 at Wed Apr 14 00:58:40 2021, MaxMem=   458752000 cpu:               0.1 elap:               0.2
 (Enter /rds/general/project/gaussian-development/live/home/gaussiangdvJ05_pgi_18/gdv/l118.exe)
 TRJ-TRJ-TRJ-TRJ-TRJ-TRJ-TRJ-TRJ-TRJ-TRJ-TRJ-TRJ-TRJ-TRJ-TRJ-TRJ-TRJ-TRJ
          ******** Start new trajectory calculation ********
 Trajectory Number     1    Step Number     1

 Eigenvalues of Mass-weighted Force Constants in hartree/(bohr**2*amu):
     0.41886903D+00     0.59393420D+00     0.61214209D+00     0.63824747D+00
     0.71728820D+00     0.73496368D+00     0.76015798D+00     0.81071032D+00
     0.86756804D+00     0.87382734D+00     0.90176842D+00     0.12158333D+01
     0.14619084D+01     0.14736054D+01     0.24728999D+01     0.24924575D+01
     0.28133633D+01     0.28450460D+01     0.29949109D+01     0.32002671D+01
     0.43137429D+01     0.49824724D+01     0.10672501D+02     0.11236659D+02
     0.00000000D+00     0.00000000D+00     0.00000000D+00     0.00000000D+00
     0.00000000D+00     0.00000000D+00
 Get start point for trajectory     1

 Start point information 
 Time (fs)     0.000000
 EKin =       0.0000000; EPot =    -281.6159490; ETot =    -281.6159490 A.U.
 Angular momentum (instantaneous)
   JX =  0.0000000000D+00  JY =  0.0000000000D+00  JZ =  0.0000000000D+00
 Jtot =  0.0000000000D+00 H-BAR;  J (Quantum Number) =  0.0000000000D+00
 Total energy  -2.816159D+02 A.U.
 Total angular momentum   0.000000D+00 h-bar
 Cartesian coordinates: (bohr)
 I=    1 X=  -1.700793691354D-01 Y=   9.686155633303D-01 Z=   0.000000000000D+00
 I=    2 X=   2.536012220694D+00 Y=   1.447991837979D+00 Z=   0.000000000000D+00
 I=    3 X=  -1.985645081668D+00 Y=   2.742161325757D+00 Z=   0.000000000000D+00
 I=    4 X=  -1.213177954277D+00 Y=  -1.689499659649D+00 Z=   0.000000000000D+00
 I=    5 X=   7.525076015908D-01 Y=  -3.754930629550D+00 Z=   0.000000000000D+00
 I=    6 X=  -1.651167337072D+00 Y=   4.638393777369D+00 Z=   0.000000000000D+00
 I=    7 X=  -2.419505412881D+00 Y=  -1.800196036573D+00 Z=   1.689229962201D+00
 I=    8 X=  -2.419505412881D+00 Y=  -1.800196036573D+00 Z=  -1.689229962201D+00
 I=    9 X=   1.885028026947D+00 Y=  -3.391504170452D+00 Z=   1.527371140180D+00
 I=   10 X=   1.885028026947D+00 Y=  -3.391504170452D+00 Z=  -1.527371140180D+00
 MW cartesian velocity: (sqrt(amu)*bohr/sec)
 I=    1 X=   0.000000000000D+00 Y=   0.000000000000D+00 Z=   0.000000000000D+00
 I=    2 X=   0.000000000000D+00 Y=   0.000000000000D+00 Z=   0.000000000000D+00
 I=    3 X=   0.000000000000D+00 Y=   0.000000000000D+00 Z=   0.000000000000D+00
 I=    4 X=   0.000000000000D+00 Y=   0.000000000000D+00 Z=   0.000000000000D+00
 I=    5 X=   0.000000000000D+00 Y=   0.000000000000D+00 Z=   0.000000000000D+00
 I=    6 X=   0.000000000000D+00 Y=   0.000000000000D+00 Z=   0.000000000000D+00
 I=    7 X=   0.000000000000D+00 Y=   0.000000000000D+00 Z=   0.000000000000D+00
 I=    8 X=   0.000000000000D+00 Y=   0.000000000000D+00 Z=   0.000000000000D+00
 I=    9 X=   0.000000000000D+00 Y=   0.000000000000D+00 Z=   0.000000000000D+00
 I=   10 X=   0.000000000000D+00 Y=   0.000000000000D+00 Z=   0.000000000000D+00
 TRJ-TRJ-TRJ-TRJ-TRJ-TRJ-TRJ-TRJ-TRJ-TRJ-TRJ-TRJ-TRJ-TRJ-TRJ-TRJ-TRJ-TRJ
 
 
 TRJ-TRJ-TRJ-TRJ-TRJ-TRJ-TRJ-TRJ-TRJ-TRJ-TRJ-TRJ-TRJ-TRJ-TRJ-TRJ-TRJ-TRJ
 Trajectory Number     1    Step Number     2

 Eigenvalues of Mass-weighted Force Constants in hartree/(bohr**2*amu):
     0.41886903D+00     0.59393420D+00     0.61214209D+00     0.63824747D+00
     0.71728820D+00     0.73496368D+00     0.76015798D+00     0.81071032D+00
     0.86756804D+00     0.87382734D+00     0.90176842D+00     0.12158333D+01
     0.14619084D+01     0.14736054D+01     0.24728999D+01     0.24924575D+01
     0.28133633D+01     0.28450460D+01     0.29949109D+01     0.32002671D+01
     0.43137429D+01     0.49824724D+01     0.10672501D+02     0.11236659D+02
     0.00000000D+00     0.00000000D+00     0.00000000D+00     0.00000000D+00
     0.00000000D+00     0.00000000D+00

 Summary information for step      2
 Time (fs)     0.000000
 EKin =       0.0000000; EPot =    -281.6159490; ETot =    -281.6159490 A.U.
 Angular momentum (instantaneous)
   JX =  0.0000000000D+00  JY =  0.0000000000D+00  JZ =  0.0000000000D+00
 Jtot =  0.0000000000D+00 H-BAR;  J (Quantum Number) =  0.0000000000D+00
 Total energy  -2.816159D+02 A.U.
 Total angular momentum   0.000000D+00 h-bar
 Cartesian coordinates: (bohr)
 I=    1 X=  -1.700793691354D-01 Y=   9.686155633303D-01 Z=   0.000000000000D+00
 I=    2 X=   2.536012220694D+00 Y=   1.447991837979D+00 Z=   0.000000000000D+00
 I=    3 X=  -1.985645081668D+00 Y=   2.742161325757D+00 Z=   0.000000000000D+00
 I=    4 X=  -1.213177954277D+00 Y=  -1.689499659649D+00 Z=   0.000000000000D+00
 I=    5 X=   7.525076015908D-01 Y=  -3.754930629550D+00 Z=   0.000000000000D+00
 I=    6 X=  -1.651167337072D+00 Y=   4.638393777369D+00 Z=   0.000000000000D+00
 I=    7 X=  -2.419505412881D+00 Y=  -1.800196036573D+00 Z=   1.689229962201D+00
 I=    8 X=  -2.419505412881D+00 Y=  -1.800196036573D+00 Z=  -1.689229962201D+00
 I=    9 X=   1.885028026947D+00 Y=  -3.391504170452D+00 Z=   1.527371140180D+00
 I=   10 X=   1.885028026947D+00 Y=  -3.391504170452D+00 Z=  -1.527371140180D+00
 MW cartesian velocity: (sqrt(amu)*bohr/sec)
 I=    1 X=   0.000000000000D+00 Y=   0.000000000000D+00 Z=   0.000000000000D+00
 I=    2 X=   0.000000000000D+00 Y=   0.000000000000D+00 Z=   0.000000000000D+00
 I=    3 X=   0.000000000000D+00 Y=   0.000000000000D+00 Z=   0.000000000000D+00
 I=    4 X=   0.000000000000D+00 Y=   0.000000000000D+00 Z=   0.000000000000D+00
 I=    5 X=   0.000000000000D+00 Y=   0.000000000000D+00 Z=   0.000000000000D+00
 I=    6 X=   0.000000000000D+00 Y=   0.000000000000D+00 Z=   0.000000000000D+00
 I=    7 X=   0.000000000000D+00 Y=   0.000000000000D+00 Z=   0.000000000000D+00
 I=    8 X=   0.000000000000D+00 Y=   0.000000000000D+00 Z=   0.000000000000D+00
 I=    9 X=   0.000000000000D+00 Y=   0.000000000000D+00 Z=   0.000000000000D+00
 I=   10 X=   0.000000000000D+00 Y=   0.000000000000D+00 Z=   0.000000000000D+00


 Final analysis for traj   1
 Traj calculation does not meet the product criterion.


 Analysis of fragment    1

 Instantaneous rotational analysis:
 Q(CM): X=  0.414306334537D-16 Y= -0.532679572976D-16 Z=  0.000000000000D+00
 V(CM): X=  0.000000000000D+00 Y=  0.000000000000D+00 Z=  0.000000000000D+00
 Angular momentum in principle axes
   JX =  0.0000000000D+00  JY =  0.0000000000D+00  JZ =  0.0000000000D+00
 Jtot =  0.0000000000D+00  H-BAR;  J (Quantum Number) =  0.0000000000D+00
 Angular momentum in original axes
   JX =  0.0000000000D+00  JY =  0.0000000000D+00  JZ =  0.0000000000D+00
 Jtot =  0.0000000000D+00  H-BAR;  J (Quantum Number) =  0.0000000000D+00

 Etrn =  0.0000000000D+00 Erot =  0.0000000000D+00 Evib(kin) =  0.0000000000D+00 au
 Epot = -0.2816159490D+03 Etot = -0.2816159490D+03 au

 Trajectory summary for trajectory      1
 Energy/gradient evaluations            1
 Hessian evaluations                    1

 Trajectory summary
   Time (fs)   Kinetic (au)   Potent (au)   Delta E (au)     Delta A (h-bar)
     0.000000     0.0000000  -281.6159490     0.0000000     0.0000000000000000
                             Max Error =      0.0000000     0.0000000000000000
 Trajectory      1 has not met product criteria!


 -----------------------
 Summary of trajectories
 -----------------------

 Trajectory      1 did not finish in      1 cycles.
   Total time in trajectory      0.000 femtosec.


 TRJ-TRJ-TRJ-TRJ-TRJ-TRJ-TRJ-TRJ-TRJ-TRJ-TRJ-TRJ-TRJ-TRJ-TRJ-TRJ-TRJ-TRJ
 Leave Link  118 at Wed Apr 14 00:58:40 2021, MaxMem=   458752000 cpu:               0.2 elap:               0.3
 (Enter /rds/general/project/gaussian-development/live/home/gaussiangdvJ05_pgi_18/gdv/l202.exe)
                          Input orientation:                          
 ---------------------------------------------------------------------
 Center     Atomic      Atomic             Coordinates (Angstroms)
 Number     Number       Type             X           Y           Z
 ---------------------------------------------------------------------
      1          6           0       -0.090002    0.512569    0.000000
      2          8           0        1.342000    0.766244    0.000000
      3          8           0       -1.050758    1.451089    0.000000
      4          6           0       -0.641986   -0.894045    0.000000
      5          7           0        0.398210   -1.987024    0.000000
      6          1           0       -0.873760    2.454532    0.000000
      7          1           0       -1.280347   -0.952623    0.893902
      8          1           0       -1.280347   -0.952623   -0.893902
      9          1           0        0.997514   -1.794707    0.808250
     10          1           0        0.997514   -1.794707   -0.808250
 ---------------------------------------------------------------------
                    Distance matrix (angstroms):
                    1          2          3          4          5
     1  C    0.000000
     2  O    1.454297   0.000000
     3  O    1.343083   2.488836   0.000000
     4  C    1.511042   2.587037   2.380493   0.000000
     5  N    2.546825   2.910537   3.730969   1.508844   0.000000
     6  H    2.094158   2.785661   1.018934   3.356589   4.620100
     7  H    2.088724   3.260409   2.574802   1.099999   2.164856
     8  H    2.088724   3.260409   2.574802   1.099999   2.164856
     9  H    2.675721   2.707473   3.922229   2.037749   1.024412
    10  H    2.675721   2.707473   3.922229   2.037749   1.024412
                    6          7          8          9         10
     6  H    0.000000
     7  H    3.545854   0.000000
     8  H    3.545854   1.787804   0.000000
     9  H    4.712851   2.430040   2.965650   0.000000
    10  H    4.712851   2.965650   2.430040   1.616500   0.000000
 Symmetry turned off by external request.
 Stoichiometry    C2H5NO2(1+,2)
 Framework group  CS[SG(C2HNO2),X(H4)]
 Deg. of freedom    15
 Full point group                 CS      NOp   2
 Rotational constants (GHZ):           8.5589038           3.8253488           2.7272736
 Leave Link  202 at Wed Apr 14 00:58:40 2021, MaxMem=   458752000 cpu:               0.0 elap:               0.1
 (Enter /rds/general/project/gaussian-development/live/home/gaussiangdvJ05_pgi_18/gdv/l9999.exe)

 This type of calculation cannot be archived.


 OF ALL THE WONDERS OF THE UNIVERSE, THE GREATEST IS MAN.

                                    -- ARISTOTLE
 Job cpu time:       0 days  0 hours  1 minutes 15.6 seconds.
 Elapsed time:       0 days  0 hours  1 minutes 16.1 seconds.
 File lengths (MBytes):  RWF=    233 Int=      0 D2E=      0 Chk=     43 Scr=      1
 Normal termination of Gaussian DV at Wed Apr 14 00:58:41 2021.
