 Entering Gaussian System, Link 0=gdv
 Input=gwp10_V1_dd_data_nm.com
 Output=gwp10_V1_dd_data_nm.log
 Initial command:
 /rds/general/project/gaussian-development/live/home/gaussiangdvJ05_pgi_18/gdv/l1.exe "/var/tmp/pbs.3077907.pbs/Gau-3039793.inp" -scrdir="/var/tmp/pbs.3077907.pbs/"
 Entering Link 1 = /rds/general/project/gaussian-development/live/home/gaussiangdvJ05_pgi_18/gdv/l1.exe PID=   3039808.
  
 Copyright (c) 1988-2019, Gaussian, Inc.  All Rights Reserved.
  
 This is the private, development version of
 the Gaussian(R) DV system of programs. It is based on
 the Gaussian(R) 16 system (copyright 2016, Gaussian, Inc.),
 the Gaussian(R) 09 system (copyright 2009, Gaussian, Inc.),
 the Gaussian(R) 03 system (copyright 2003, Gaussian, Inc.),
 the Gaussian(R) 98 system (copyright 1998, Gaussian, Inc.),
 the Gaussian(R) 94 system (copyright 1995, Gaussian, Inc.),
 the Gaussian 92(TM) system (copyright 1992, Gaussian, Inc.),
 the Gaussian 90(TM) system (copyright 1990, Gaussian, Inc.),
 the Gaussian 88(TM) system (copyright 1988, Gaussian, Inc.),
 the Gaussian 86(TM) system (copyright 1986, Carnegie Mellon
 University), and the Gaussian 82(TM) system (copyright 1983,
 Carnegie Mellon University). Gaussian is a federally registered
 trademark of Gaussian, Inc.
  
 This software contains proprietary and confidential information,
 including trade secrets, belonging to Gaussian, Inc.
  
 This software is provided under written license and may be
 used, copied, transmitted, or stored only in accord with that
 written license.
  
 The following legend is applicable only to US Government
 contracts under FAR:
  
                    RESTRICTED RIGHTS LEGEND
  
 Use, reproduction and disclosure by the US Government is
 subject to restrictions as set forth in subparagraphs (a)
 and (c) of the Commercial Computer Software - Restricted
 Rights clause in FAR 52.227-19.
  
 Gaussian, Inc.
 340 Quinnipiac St., Bldg. 40, Wallingford CT 06492
  
  
 ---------------------------------------------------------------
 Warning -- This program may not be used in any manner that
 competes with the business of Gaussian, Inc. or will provide
 assistance to any competitor of Gaussian, Inc.  The licensee
 of this program is prohibited from giving any competitor of
 Gaussian, Inc. access to this program.  By using this program,
 the user acknowledges that Gaussian, Inc. is engaged in the
 business of creating and licensing software in the field of
 computational chemistry and represents and warrants to the
 licensee that it is not a competitor of Gaussian, Inc. and that
 it will not use this program in any manner prohibited above.
 ---------------------------------------------------------------
  

 Cite this work as:
 Gaussian Development Version, Revision J.05,
 M. J. Frisch, G. W. Trucks, H. B. Schlegel, G. E. Scuseria, 
 M. A. Robb, J. R. Cheeseman, G. Scalmani, V. Barone, 
 G. A. Petersson, H. Nakatsuji, X. Li, M. Caricato, A. V. Marenich, 
 J. Bloino, B. G. Janesko, R. Gomperts, B. Mennucci, H. P. Hratchian, 
 J. V. Ortiz, A. F. Izmaylov, J. L. Sonnenberg, D. Williams-Young, 
 F. Ding, F. Lipparini, F. Egidi, J. Goings, B. Peng, A. Petrone, 
 T. Henderson, D. Ranasinghe, V. G. Zakrzewski, J. Gao, N. Rega, 
 G. Zheng, W. Liang, M. Hada, M. Ehara, K. Toyota, R. Fukuda, 
 J. Hasegawa, M. Ishida, T. Nakajima, Y. Honda, O. Kitao, H. Nakai, 
 T. Vreven, K. Throssell, J. A. Montgomery, Jr., J. E. Peralta, 
 F. Ogliaro, M. J. Bearpark, J. J. Heyd, E. N. Brothers, K. N. Kudin, 
 V. N. Staroverov, T. A. Keith, R. Kobayashi, J. Normand, 
 K. Raghavachari, A. P. Rendell, J. C. Burant, S. S. Iyengar, 
 J. Tomasi, M. Cossi, J. M. Millam, M. Klene, C. Adamo, R. Cammi, 
 J. W. Ochterski, R. L. Martin, K. Morokuma, O. Farkas, 
 J. B. Foresman, and D. J. Fox, Gaussian, Inc., Wallingford CT, 2019.
 
 ******************************************
 Gaussian DV:  EM64L-GDVRevJ.05 25-Dec-2019
                11-Feb-2021 
 ******************************************
 %chk=/rds/general/ephemeral/user/marobb/ephemeral/pbs.3077907.pbs/dd_data_nm/gwp
 10_V1/gwp10_V1_dd_data_nm.chk
 %mem=3500mb
 %nprocshared=1
 Will use up to    1 processors via shared memory.
 %subst l1003 /rds/general/user/marobb/projects/gaussian-development/live/home/ga
 ussiangdvJ05_pgi_18/gdvtest_v13_j05_cx1/l1003
 %subst l510 /rds/general/user/marobb/projects/gaussian-development/live/home/gau
 ssiangdvJ05_pgi_18/gdvtest_v13_j05_cx1/l510
 ----------------------------------------------------------------------
 #P nonstd 1/6=1,7=11,8=120,9=3,20=0,38=1,42=1,43=6,71=500,172=1/1,18; 
 2/12=2,15=1,17=6,18=5,40=1/2; 3/5=1,6=6,7=1,14=-4,25=1,71=2,116=101,14
 0=1/1,2,3; 4/5=1,6=2,17=3,18=2,21=20,43=1,69=2/1,5; 5/5=2,7=-3,14=1,17
 =41000210,28=2,33=0,38=6,51=1,72=1,88=1,92=10,93=20,94=999999,97=23,10
 0=111/10; 8/6=4,10=90,11=11,107=2/1; 11/31=1,42=1,45=1/1; 10/6=1,10=70
 0007,28=2,31=1,33=0,97=23,100=111/3(-3); 6/7=3,8=2,9=2,10=2/1; 7/8=100
 001,10=1,25=1,30=1/1,2,3,16; 1/6=1,7=11,8=120,9=3,20=0,42=1,43=6,71=50
 0/18(3); 2/15=1/2; 99/9=1/99;
 ----------------------------------------------------------------------
 1/6=1,7=11,8=120,9=3,38=1,42=1,43=6,71=500,172=1/1,18;
 2/12=2,15=1,17=6,18=5,40=1/2;
 3/5=1,6=6,7=1,14=-4,25=1,71=2,116=101,140=1/1,2,3;
 4/5=1,6=2,17=3,18=2,21=20,43=1,69=2/1,5;
 5/5=2,7=-3,14=1,17=41000210,28=2,38=6,51=1,72=1,88=1,92=10,93=20,94=999999,97=23,100=111/10;
 8/6=4,10=90,11=11,107=2/1;
 11/31=1,42=1,45=1/1;
 10/6=1,10=700007,28=2,31=1,97=23,100=111/3(-3);
 6/7=3,8=2,9=2,10=2/1;
 7/8=100001,10=1,25=1,30=1/1,2,3,16;
 1/6=1,7=11,8=120,9=3,42=1,43=6,71=500/18(3);
 2/15=1/2;
 99/9=1/99;
 Leave Link    1 at Thu Feb 11 16:23:23 2021, MaxMem=   458752000 cpu:               0.0 elap:               0.0
 (Enter /rds/general/project/gaussian-development/live/home/gaussiangdvJ05_pgi_18/gdv/l101.exe)
 ----------------------------------------------------------------------
 Freq IOp(5/17=41000200,10/10=700007) Guess=Read Ehrenfest Dyn. first b
 lock: init. geom. in Bohr second: init. momenta in some units final bl
 ock: initial TD wavefunction
 ----------------------------------------------------------------------
 Symbolic Z-matrix:
 Charge =  1 Multiplicity = 2
 C                    -0.05941  -0.01838  -0.01415 
 C                     0.03258   0.00561   1.33871 
 C                     0.01924  -0.00085  -1.29513 
 H                    -0.13958   1.09821   1.88479 
 H                     0.16506  -0.97447   1.59528 
 H                     0.89361  -0.2057   -1.89656 
 H                    -0.82885   0.24401  -1.93382 
 
 ITRead=  0  0  0  0  0  0  0
 MicOpt= -1 -1 -1 -1 -1 -1 -1
 NAtoms=      7 NQM=        7 NQMF=       0 NMMI=      0 NMMIF=      0
                NMic=       0 NMicF=      0.
                    Isotopes and Nuclear Properties:
 (Nuclear quadrupole moments (NQMom) in fm**2, nuclear magnetic moments (NMagM)
  in nuclear magnetons)

  Atom         1           2           3           4           5           6           7
 IAtWgt=          12          12          12           1           1           1           1
 AtmWgt=  12.0000000  12.0000000  12.0000000   1.0078250   1.0078250   1.0078250   1.0078250
 NucSpn=           0           0           0           1           1           1           1
 AtZEff=  -0.0000000  -0.0000000  -0.0000000  -0.0000000  -0.0000000  -0.0000000  -0.0000000
 NQMom=    0.0000000   0.0000000   0.0000000   0.0000000   0.0000000   0.0000000   0.0000000
 NMagM=    0.0000000   0.0000000   0.0000000   2.7928460   2.7928460   2.7928460   2.7928460
 AtZNuc=   6.0000000   6.0000000   6.0000000   1.0000000   1.0000000   1.0000000   1.0000000
 Leave Link  101 at Thu Feb 11 16:23:23 2021, MaxMem=   458752000 cpu:               0.2 elap:               0.2
 (Enter /rds/general/project/gaussian-development/live/home/gaussiangdvJ05_pgi_18/gdv/l118.exe)
 TRJ-TRJ-TRJ-TRJ-TRJ-TRJ-TRJ-TRJ-TRJ-TRJ-TRJ-TRJ-TRJ-TRJ-TRJ-TRJ-TRJ-TRJ
 ------------------------------------------------------------------------
 INPUT DATA FOR L118
 ------------------------------------------------------------------------

 General parameters:
 Max. points for each Traj.   =       1
 Total Number of Trajectories =       1
 Random Number Generator Seed =  398465
 Trajectory Step Size         =   0.012 sqrt(amu)*bohr

 Sampling parameters:
 Trajectory starting from initial velocity.
 Scaling and sampling options will be ignored!

 Integration parameters:
 Correction Scheme            = None                                
 Project trans/rot in grad.   = True 
 Hessian evaluation           = Full Hessian always

 Initial velocity (bohr/sec) for trajectory      1
 I=    1 X=   0.000000000000D+00 Y=   0.000000000000D+00 Z=   0.000000000000D+00
 I=    2 X=   0.000000000000D+00 Y=   0.000000000000D+00 Z=   0.000000000000D+00
 I=    3 X=   0.000000000000D+00 Y=   0.000000000000D+00 Z=   0.000000000000D+00
 I=    4 X=   0.000000000000D+00 Y=   0.000000000000D+00 Z=   0.000000000000D+00
 I=    5 X=   0.000000000000D+00 Y=   0.000000000000D+00 Z=   0.000000000000D+00
 I=    6 X=   0.000000000000D+00 Y=   0.000000000000D+00 Z=   0.000000000000D+00
 I=    7 X=   0.000000000000D+00 Y=   0.000000000000D+00 Z=   0.000000000000D+00
 ------------------------------------------------------------------------
 TRJ-TRJ-TRJ-TRJ-TRJ-TRJ-TRJ-TRJ-TRJ-TRJ-TRJ-TRJ-TRJ-TRJ-TRJ-TRJ-TRJ-TRJ
 Leave Link  118 at Thu Feb 11 16:23:23 2021, MaxMem=   458752000 cpu:               0.0 elap:               0.1
 (Enter /rds/general/project/gaussian-development/live/home/gaussiangdvJ05_pgi_18/gdv/l202.exe)
                          Input orientation:                          
 ---------------------------------------------------------------------
 Center     Atomic      Atomic             Coordinates (Angstroms)
 Number     Number       Type             X           Y           Z
 ---------------------------------------------------------------------
      1          6           0       -0.059405   -0.018375   -0.014151
      2          6           0        0.032583    0.005611    1.338706
      3          6           0        0.019242   -0.000845   -1.295134
      4          1           0       -0.139580    1.098211    1.884788
      5          1           0        0.165063   -0.974467    1.595278
      6          1           0        0.893610   -0.205700   -1.896560
      7          1           0       -0.828848    0.244009   -1.933824
 ---------------------------------------------------------------------
                    Distance matrix (angstroms):
                    1          2          3          4          5
     1  C    0.000000
     2  C    1.356193   0.000000
     3  C    1.283515   2.633882   0.000000
     4  H    2.204351   1.233540   3.368242   0.000000
     5  H    1.885407   1.021730   3.053471   2.114856   0.000000
     6  H    2.118205   3.354544   1.080832   4.131133   3.648934
     7  H    2.084714   3.392396   1.089557   3.973229   3.863561
                    6          7
     6  H    0.000000
     7  H    1.780587   0.000000
 Symmetry turned off by external request.
 Stoichiometry    C3H4(1+,2)
 Framework group  C1[X(C3H4)]
 Deg. of freedom    15
 Full point group                 C1      NOp   1
 Rotational constants (GHZ):         130.3374974           8.9683730           8.7301158
 Leave Link  202 at Thu Feb 11 16:23:23 2021, MaxMem=   458752000 cpu:               0.0 elap:               0.1
 (Enter /rds/general/project/gaussian-development/live/home/gaussiangdvJ05_pgi_18/gdv/l301.exe)
 Standard basis: 6-31G(d) (6D, 7F)
 Ernie: Thresh=  0.10000D-02 Tol=  0.10000D-05 Strict=F.
    53 basis functions,   100 primitive gaussians,    53 cartesian basis functions
    11 alpha electrons       10 beta electrons
       nuclear repulsion energy        58.7572229889 Hartrees.
 IExCor=    0 DFT=F Ex=HF Corr=None N6=None ScaHFX=  1.000000
 ScaDFX=  1.000000  1.000000  1.000000  1.000000  0.000000  0.000000
 ScaDFX=  0.000000  0.000000  0.000000  0.000000  0.000000  0.000000
 IRadAn=      5 IRanWt=     -1 IRanGd=            0 ICorTp=0 IEmpDi=  4
 NAtoms=    7 NActive=    7 NUniq=    7 SFac= 1.00D+00 NAtFMM=   60 NAOKFM=F Big=F
 Integral buffers will be    131072 words long.
 Regular integral format.
 Two-electron integral symmetry is turned off.
 Leave Link  301 at Thu Feb 11 16:23:23 2021, MaxMem=   458752000 cpu:               0.1 elap:               0.1
 (Enter /rds/general/project/gaussian-development/live/home/gaussiangdvJ05_pgi_18/gdv/l302.exe)
 NPDir=0 NMtPBC=     1 NCelOv=     1 NCel=       1 NClECP=     1 NCelD=      1
         NCelK=      1 NCelE2=     1 NClLst=     1 CellRange=     0.0.
 One-electron integrals computed using PRISM.
 NBasis=    53 RedAO= T EigKep=  1.60D-03  NBF=    53
 NBsUse=    53 1.00D-06 EigRej= -1.00D+00 NBFU=    53
 Leave Link  302 at Thu Feb 11 16:23:24 2021, MaxMem=   458752000 cpu:               0.2 elap:               0.2
 (Enter /rds/general/project/gaussian-development/live/home/gaussiangdvJ05_pgi_18/gdv/l303.exe)
 DipDrv:  MaxL=1.
 Leave Link  303 at Thu Feb 11 16:23:24 2021, MaxMem=   458752000 cpu:               0.1 elap:               0.1
 (Enter /rds/general/project/gaussian-development/live/home/gaussiangdvJ05_pgi_18/gdv/l401.exe)
 Initial guess from the checkpoint file:  "/rds/general/ephemeral/user/marobb/ephemeral/pbs.3077907.pbs/dd_data_nm/gwp10_V1/gwp10_V1_dd_data_nm.chk"
 B after Tr=     0.000000    0.000000    0.000000
         Rot=    1.000000    0.000000    0.000000    0.000000 Ang=   0.00 deg.
 Guess basis will be translated and rotated to current coordinates.
 JPrj=0 DoOrth=T DoCkMO=T.
 Leave Link  401 at Thu Feb 11 16:23:24 2021, MaxMem=   458752000 cpu:               0.2 elap:               0.2
 (Enter /rds/general/project/gaussian-development/live/home/gaussiangdvJ05_pgi_18/gdv/l405.exe)
          Truncation Level=               99999
          a=  1          b=  1          c=  0
          a=N/2 - s   b=2s   c=n- (a+b)
          no. active orbitals (n)  2
          no. active ELECTRONS (N)=  3
                                                  IRREPS TO BE RETAINED = 1
                                                  GROUP IRREP. MULT. TABLE
                                                      1
                                                  IRREP. LABELS FOR ORBITALS
                                                   1 1
          BOTTOM WEIGHT=  4     TOP WEIGHT=  5
          Configuration         1 Symmetry 1 1a
          Configuration         2 Symmetry 1 a1
          NO OF BASIS FUNCTIONS =         2 NO TO BE DELETED =    0
 CI Matrix Elements calculated here
          NO. OF CONFIGURATIONS IN REFERENCE SPACE =    1
                                   SECONDARY SPACE =    2
                                   TERTIARY SPACE =    2
          NO. OF ORBITALS =    2
          NO. OF ELECTRONS =    3
          NO. OF WEIGHTS =    2
          REFERENCE STATE CONFIGURATIONS ARE:     0
          NO. OF CORE ORBITALS =    0
          OPTION:  NON-DIAGONAL HOLE LINE INTERACTIONS INCLUDED
 Len28=          68 LenMCI=         101.
 Leave Link  405 at Thu Feb 11 16:23:28 2021, MaxMem=   458752000 cpu:               4.1 elap:               4.1
 (Enter /rds/general/user/marobb/projects/gaussian-development/live/home/gaussiangdvJ05_pgi_18/gdvtest_v13_j05_cx1/l510/l510.exe)
 Prepare State Averaged 2nd derivatives
  MCSCF will prepare Gradient Dif. and Deriv. Cps.
                        0                  145023
 Enter MCSCF program.
 NBasis=   53 NCore=    9 NVal=    2 NVirt=   42 IFrame=0 Acc=  1.00D-08.
  Memory needed for Incore Integrals:                 2214764
  Memory needed for direct integral evaluation:                  938176
  Integrals KEPT IN MEMORY
 IBUJAK length=                  375717
 Integral file not found: evaluate integrals 
 FoFCou: FMM=F IPFlag=           0 FMFlag=           0 FMFlg1=           0
         NFxFlg=           0 DoJE=F BraDBF=F KetDBF=F FulRan=T
         wScrn=  0.000000 ICntrl=       600 IOpCl=  0 I1Cent=           0 NGrid=           0
         NMat0=    1 NMatS0=      1 NMatT0=    0 NMatD0=    1 NMtDS0=    0 NMtDT0=    0
 Symmetry not used in FoFCou.
 First order MCSCF but last itn is Quadratic
 Defining IBUGAM
 State Average Calculation.   The weights are:
 St.: 1 w.=0.500000 # St.: 2 w.=0.500000 # St.:
 2ND ORD PT ENERGY     CV   -0.000001   CU   -0.000006   UV   -0.000001
 TOTAL                    -115.463242
 ITN=  1 MaxIt=*** E=   -115.4632334515 DE=-1.15D+02 Acc= 1.00D+00 Lan=  0
 ITN=  2 MaxIt=*** E=   -115.4632392807 DE=-5.83D-06 Acc= 1.00D+00 Lan=  0
 ... Do an extra-iteration for final printing.


                    EIGENVALUES AND  EIGENVECTORS OF CI MATRIX



   ( 1)     EIGENVALUE   -115.5126046    
 (    1) 0.8126615 (    2) 0.5827360 (


   ( 2)     EIGENVALUE   -115.4632685        1.3425 eV
 (    2) 0.8126615 (    1)-0.5827360 (
 vector                       2phase change made
 ****************************
 Modification for TDcode: NoL118
 iTrans does not exist
 Creating and defining iTrans=  850
 iTrans has a length of   20
 NAtoms=    7
 Creating and defining iTDhes=  833
 iTDhes has a length of  252
 Read common block TrjDat from L118
 MaxStp=    2
 StpSiz=    0.0120000
 Putting information on iTrans
 Length=   20
 MaxPoints=    2
 StpSiz=    0.0120000
 NHesTd=    0
 iHsOff=    0
 Putting information on ILSW
 MixExt=    0
 ****************************
  
 ---INPUT DATA FOR TIME DEPENDENT CODE---
  
 Method: Propagation on mixed State
 Start: First hop is down
 Debug option: force immediate start
  
 Gradient options:
 -use Time Dependent basis
 -check ECC by diagonalisation every step
  
 Creating and defining iTDep=                     813
 iTDep has a length of                      136
  
 Creating file iTDHX=                     818
 iTDHX has a length of                   278784
  
 Creating file iTDHYA=                     834
 iTDHYA has a length of                   278784
  
 Creating file iTDHYS=                     820
 iTDHYS has a length of                   278784
  
 ---DATA STORED ON ITDEP---

 Space in itdep for wavefunction allocated as follows:
 NSec................................................. =         2
 MaxPt................................................ =         2
                             Vectors Start at:
 NData (100).....................................idata =         1
 previous iteration MCSCF Energies (NSec).......ienrgy =       101
 previous iteration MCSCF Vectors (NSec*NSec)...imcvec =       103
 Time (MaxPt)....................................itime =       107
 Time Dep Vector in CSF basis (MaxPt*2*NSec)....iatcsf =       109
 Time Dep Vector in eigen basis (MaxPt*2*NSec)...iatci =       117
 Time Dep Energy (MaxPt).........................iaeng =       121
 ---------------------------------------------------
 Total .........................................itotal =       122


 Space in itdep for gradient allocated as follows:
                             Vectors Start at:
 Time Dep Hamiltonain (NSec*NSec)...............jtdham =       122
 Time Dep ECC (NSec*NSec).......................jtdecc =       126
 Time Dep inverted ECC (NSec*NSec)..............jtdinv =       130
 All Time Dep Vectors Energy (NSec).............jtdeng =       134
 ---------------------------------------------------
 Total .........................................ktotal =       136

 ****************************
 Modification for TDcode: NoL118
 Read iTDep
 IRun=    1
 INewAd=    0
 INewDi=    0
 Read iTrans
 iopV=   23
 NHesTd=    0
 iHsOff=    0
 Read ILSW
 Ihup=    2
 MixExt=    0
 Read common block TrjDat from L118
 Ihup=    0
 NHessE=    0
 NHesTp=    5
 NHesUp=    0
 NHsBck=    2
 Write TTime into iTDep
 DTime(2)=    0.0000000
 TTime=     0.0000000
 ****************************
 Reference core energy  0.0000000000000000E+000
 SA info  IstaLo  Istate
                        1                       2
                                 au    KCal/mol      KJ/mol
 Current energy gap is      0.04934    30.95890   129.53202
 Start when energy gap is   0.99900   626.88203  2622.87442
  
 Starting time dep immediately 
 Start Time Dependent Code!
 Initiating changes in L118
 ****************************
 Modification for TDcode: NoL118
 Alter thrust radius ENTER
 incoming step size from L118    1.2000000000000000E-002
 incoming Dtime(2)  from L118    0.0000000000000000E+000
 step size from L510   2.0000000000000000E-002reset to  0.0000000000000000E+000
 New step size =  0.000
 ****************************
  
 WARNING, Altering Thrust radius to TimeDep value!
 Altered Thrust radius is  0.000
 AJJ Timdep fthere: T
 there
 AJJ BTime, CTime   39.90000000000000        40.00000000000000     
  
 Total time from previous Traj step=    39.90000 femto seconds(BTime)
 Time step taken in Traj=                0.10000 femto seconds(DTime)
 Total time from current Traj step=     40.00000 femto seconds(CTime)
  
 Summary of Results
 Times TimeDep has run                   0
 TimeDep started on Count step           2
 Current Count step                      1
 Current Trajectory step                 1
 Current TimeDep step                    0
 Maximium number of Trajectory step      2
 Maximium number of TimeDep steps        1
 Projecting using state                  2
  
 Printing new MCSCF vectors and energies
 State     Energy
     1   -115.51260
     2   -115.46327
                        2
 no of vectors from eival code
 project in full space
  
 Current Time Dep wavefunction in basis of configuration state functions
  config        Real           Imag
      1       0.63676        0.10515
      2       0.20410        0.73608
  
 Current Time Dep wavefunction in basis of ci state functions
  config        Real           Imag
      1       0.63641        0.51440
      2       0.20520       -0.53691
 Total Probability is      1.00000
  
 The total energy Time dep state is    -115.49631
  
 Information for the important states
         STATE       Real      Imag      Prob for this state
 state     1       0.40502   0.26460   0.66962
 state     2       0.04211   0.28827   0.33038
                                       --------
  
 End Results
 Final one electron symbolic density matrix:
                1             2 
      1  0.133958D+01
      2 -0.947134D+00  0.166042D+01
 Density Matrix for State                           1
                1             2 
      1  0.166042D+01
      2  0.947134D+00  0.133958D+01
  Final State Averaged  Density Matrix
                1             2 
      1  0.150000D+01
      2  0.000000D+00  0.150000D+01
 ****************************
 Modification for TDcode: GradOnlyNoCP7
 This trajectory computes the CP-MCSCF
 IOp(5/17=XXXXX2XX)
 Call A2TDep
 Check the energy is the same
 A(t) energy is           -115.49631
 Real A(t) energy is      -115.49631
 A(t) closest to CI state vector e(                       1)
 Renormalisation required
                the CI         and TD Energies 
 root     1   -115.5126046     -115.4795680 
 root     2   -115.4632685     -115.4963051 
  
 MCSCF state                        1 almost degenerate with projecting state 
                        2
   possible instability detected in ECC hence will diagonalise
 TD state                        2 almost degenerate with TD state 
                        1
 Degeneracy detected in ECC
 EXX=Exx-Exc[Ecc-1]Ecx completed
 Inverted Orbital Hessian
          v(    1)    v(    2)    v(    3)    v(    4)    v(    5)
    1    0.1944551  -0.0000277   0.0003329   0.0000289  -0.0000550
    2   -0.0000266  -0.0000490   0.0000198  -0.0015285  -0.0000299
    3    0.0002210  -0.0001023   0.0000009   0.0002189  -0.0000767
    4   -0.0002680   0.0006305   0.0000023  -0.0000091   0.0001378
    5   -0.0013624   0.0000268   0.0000172   0.0000004  -0.0000526
    6   -0.0002984   0.0000459  -0.0000405   0.0000001  -0.0000027
    7   -0.0007636   0.0000049   0.0000121  -0.0000035  -0.0000012
    8   -0.0002471  -0.0008167   0.0000188   0.0000079  -0.0000007
    9   -0.0001281  -0.0003425   0.0000291  -0.0000251   0.0000006
   10    0.0971288   0.0000325   0.0000443  -0.0000049   0.0000093
   11   -0.0000120   0.0002689  -0.0001182  -0.0000173  -0.0000165
   12    0.0001101   0.0000267   0.0001457  -0.0000014   0.0000108
   13   -0.0004080   0.0000445   0.0000197   0.0001395  -0.0000306
   14   -0.0009366   0.0001229   0.0000009  -0.0000549  -0.0000086
   15   -0.0000896  -0.0006529   0.0000013  -0.0002027   0.0002113
   16   -0.0007833  -0.0000144   0.0000000   0.0000190  -0.0000407
   17   -0.0001164  -0.0000353  -0.0000406  -0.0000096   0.0000251
   18    0.0003068   0.0000485   0.0001897   0.0000075  -0.0000002
   19    0.0000000   0.0008353  -0.0000057   0.0001366   0.0000032
   20   -0.0003152  -0.0000310   0.0001830  -0.0000183  -0.0000036
 EXX succesfully inverted
 EXY=Exy-Exc[Ecc-1]Ecy completed
 EYY=Eyy-Eyc[Ecc-1]Ecy completed
 ****************************
 ****************************
  spin density
 ****************************
 Using Gould-Chandler-Battle algorythm
     5 Matrix elements generated
 MCSCF converged.
 Leave Link  510 at Thu Feb 11 16:23:33 2021, MaxMem=   458752000 cpu:               4.5 elap:               4.6
 (Enter /rds/general/project/gaussian-development/live/home/gaussiangdvJ05_pgi_18/gdv/l801.exe)
 Range of M.O.s used for correlation:     1    53
 NBasis=    53 NAE=    11 NBE=    10 NFC=     0 NFV=     0
 NROrb=     53 NOA=    11 NOB=    10 NVA=    42 NVB=    43

 **** Warning!!: The largest alpha MO coefficient is  0.12099057D+02

 Leave Link  801 at Thu Feb 11 16:23:34 2021, MaxMem=   458752000 cpu:               0.1 elap:               0.1
 (Enter /rds/general/project/gaussian-development/live/home/gaussiangdvJ05_pgi_18/gdv/l1101.exe)
 Not using compressed storage, NAtomX=     7.
 Will process      7 centers per pass.
 Leave Link 1101 at Thu Feb 11 16:23:34 2021, MaxMem=   458752000 cpu:               0.2 elap:               0.2
 (Enter /rds/general/user/marobb/projects/gaussian-development/live/home/gaussiangdvJ05_pgi_18/gdvtest_v13_j05_cx1/l1003/l1003.exe)
 AJJ INITCP                       1 T                       1
 State Average second derivatives
 Gradient Difference/Derivative Coupling Calculation
 NO. OF ORBITALS         = 53      NO. OF CORE-ORBITALS    =  9
 NO. OF VALENCE-ORBITALS =  2      NO. OF VIRTUAL-ORBITALS = 42
 One call to fofjk will do it.
 FoFJK:  IHMeth= 0 ICntrl=    3500 DoSepK=F KAlg= 0 I1Cent=           0 FoldK=F
 IRaf=         0 NMat=       7 IRICut=       1 DoRegI=T DoRafI=F ISym2E= 0 IDoP0=0 IntGTp=1.
 FoFCou: FMM=F IPFlag=           0 FMFlag=      100000 FMFlg1=           0
         NFxFlg=           0 DoJE=F BraDBF=F KetDBF=F FulRan=T
         wScrn=  0.000000 ICntrl=      3500 IOpCl=  1 I1Cent=           0 NGrid=           0
         NMat0=    7 NMatS0=      7 NMatT0=    0 NMatD0=    7 NMtDS0=    0 NMtDT0=    0
 Symmetry not used in FoFCou.
 JobTyp= 0 Pass  1:  I=   1 to   2  IAt=   2 to   7.
  
 iTDHX exists and is of correct length=                  278784
 iTDHYA exists and is of correct length=                  278784
 iTDHYS exists and is of correct length=                  278784
 One call to fofjk will do it.
 reading timdep density
 JobTyp= 0 Pass  1:  I=   1 to   2  IAt=   2 to   7.
 Forming derivative Fock matricies
  
  
 TD-CP-MCSCF X for atom=                       2 xyz=                       1
          v(    1)    v(    2)
    1    0.0001836   0.0105310
    2   -0.0014658  -0.0101810
    3    0.0015191  -0.1269470
    4    0.0149435   0.1213704
    5   -0.0070629   0.0185215
    6   -0.0102540  -0.0359646
    7    0.0054089   0.0159348
    8   -0.0035486   0.0164031
    9   -0.0083338   0.0043473
   10    0.0099692   0.0084551
   11   -0.0091260   0.0153135
   12    0.0099256   0.0073201
   13   -0.0192634  -0.0070210
   14    0.0180270  -0.1181722
   15    0.0323664   0.1173644
   16    0.1345100   0.0099171
   17    0.0396863  -0.0505959
   18    0.1010877   0.0087492
   19    0.0000000   0.0005436
   20    0.0147635   0.0070451
  
 TD-CP-MCSCF X for atom=                       2 xyz=                       2
          v(    1)    v(    2)
    1   -0.0035838  -0.0110154
    2   -0.0027237   0.0106798
    3    0.0026637   0.0133260
    4    0.0681001  -0.0157531
    5   -0.0602971   0.0017089
    6    0.0214460  -0.0741713
    7    0.3099227  -0.0036538
    8    0.0355823  -0.0557541
    9    0.2012960  -0.0011124
   10    0.0018964   0.0056164
   11   -0.0004828   0.0013948
   12    0.0005684  -0.0002914
   13   -0.0094219   0.0005781
   14    0.0118963   0.0088973
   15    0.0009186  -0.0117729
   16    0.0083470  -0.0012387
   17    0.0007504   0.1042103
   18    0.0038266   0.0076192
   19    0.0000000   0.0736190
   20   -0.0076630   0.0130399
  
 TD-CP-MCSCF X for atom=                       2 xyz=                       3
          v(    1)    v(    2)
    1   -0.0005723  -0.0003708
    2   -0.0004988   0.0002010
    3    0.0004714   0.0086056
    4   -0.0023194  -0.0029069
    5    0.0020925   0.0354285
    6   -0.2135200   0.0038122
    7    0.0229194   0.0731124
    8   -0.1533905  -0.0046890
    9    0.0209867  -0.0100199
   10    0.0014155   0.0125519
   11    0.0003410  -0.0022778
   12   -0.0006887  -0.0006130
   13    0.0092306   0.0003396
   14    0.0069945   0.0076935
   15   -0.0597390  -0.0048632
   16   -0.0044156  -0.1063629
   17    0.0799653   0.0184704
   18   -0.0218282  -0.0536337
   19    0.0000000   0.0121268
   20    0.0001874   0.0132716
  
 TD-CP-MCSCF X for atom=                       3 xyz=                       1
          v(    1)    v(    2)
    1    0.0030044   0.0089950
    2    0.0018840   0.0086668
    3    0.0020187  -0.0029797
    4    0.0132143  -0.0065182
    5    0.0136333   0.0038016
    6   -0.0062417   0.1036095
    7   -0.0291330  -0.0066784
    8   -0.0030549  -0.0610469
    9    0.0165033   0.0025128
   10   -0.0043550   0.0158046
   11    0.0033808  -0.0011030
   12    0.0032643  -0.0036908
   13   -0.0709788  -0.0039258
   14   -0.0664051   0.0098060
   15   -0.0003133   0.0108135
   16   -0.2836616   0.0011320
   17    0.0027153   0.1152276
   18    0.1564749  -0.0031623
   19    0.0000000  -0.0668980
   20   -0.0072244   0.0023553
  
 TD-CP-MCSCF X for atom=                       3 xyz=                       2
          v(    1)    v(    2)
    1    0.0116619  -0.0136382
    2    0.0105621  -0.0132086
    3    0.0111268   0.1428510
    4    0.0272253   0.1317525
    5    0.0240038  -0.0007322
    6    0.0089688   0.0220461
    7   -0.1553782   0.0002973
    8   -0.0014403   0.0334671
    9    0.0924856   0.0193792
   10   -0.0004865  -0.0028816
   11    0.0004481  -0.0182303
   12    0.0004428   0.0098766
   13   -0.0057358   0.0095854
   14    0.0005140  -0.1329328
   15   -0.0114240  -0.1287084
   16    0.0315778   0.0038041
   17    0.0078491  -0.0630044
   18   -0.0336516  -0.0068571
   19    0.0000000  -0.0012473
   20    0.0179607  -0.0045765
  
 TD-CP-MCSCF X for atom=                       3 xyz=                       3
          v(    1)    v(    2)
    1   -0.0014718  -0.0012368
    2    0.0002626  -0.0013513
    3    0.0004836   0.0048077
    4    0.0086785   0.0057558
    5   -0.0074700  -0.0513130
    6    0.0654199   0.0091969
    7    0.0026440   0.1052499
    8    0.0600720  -0.0106606
    9    0.0093139  -0.0155838
   10    0.0010254   0.0213269
   11    0.0014922  -0.0003668
   12    0.0010578  -0.0008040
   13   -0.0114728  -0.0009491
   14   -0.0026072  -0.0036770
   15    0.2592570   0.0029246
   16   -0.0110697  -0.1305321
   17   -0.2602161  -0.0001528
   18    0.0073559   0.0981295
   19    0.0000000  -0.0090880
   20   -0.0000753   0.0506763
  
 TD-CP-MCSCF X for atom=                       4 xyz=                       1
          v(    1)    v(    2)
    1    0.0000466  -0.0011780
    2    0.0003325   0.0011746
    3   -0.0003369   0.0167954
    4   -0.0019303  -0.0102015
    5    0.0009908   0.0489690
    6   -0.0105289  -0.0369815
    7    0.0048923   0.0374479
    8    0.0052660  -0.0388066
    9    0.0051506   0.0399160
   10    0.0000463  -0.0682248
   11    0.0000204   0.0001279
   12   -0.0000118   0.0007742
   13    0.0192412  -0.0007659
   14   -0.0100783   0.0116926
   15    0.0977241  -0.0058323
   16   -0.0744121   0.0485113
   17    0.0799473  -0.0306961
   18   -0.0680607   0.0408604
   19    0.0000000  -0.0320939
   20   -0.0001995   0.0364503
  
 TD-CP-MCSCF X for atom=                       4 xyz=                       2
          v(    1)    v(    2)
    1   -0.0004328   0.0078134
    2   -0.0021029  -0.0077278
    3    0.0020891  -0.0254919
    4    0.0169069   0.0215792
    5   -0.0113352   0.0090329
    6    0.0395981   0.0129307
    7   -0.0496507   0.0070512
    8    0.0329881   0.0199997
    9   -0.0468930   0.0095868
   10    0.0001182  -0.0111174
   11    0.0004732  -0.0014340
   12   -0.0004673  -0.0045787
   13    0.0011878   0.0045155
   14    0.0000868   0.0208905
   15    0.0209725  -0.0167673
   16   -0.0156738   0.0105977
   17    0.0141768  -0.0229605
   18   -0.0126660   0.0071831
   19    0.0000000  -0.0266641
   20    0.0019419   0.0089164
  
 TD-CP-MCSCF X for atom=                       4 xyz=                       3
          v(    1)    v(    2)
    1   -0.0005046   0.0038626
    2   -0.0011032  -0.0038424
    3    0.0010733  -0.0128697
    4    0.0147276   0.0208846
    5   -0.0110796   0.0007255
    6    0.0197571  -0.0282932
    7    0.0238334  -0.0030849
    8    0.0187767  -0.0216203
    9    0.0101013   0.0188591
   10    0.0001274   0.0005620
   11    0.0002233  -0.0019494
   12   -0.0002195  -0.0022768
   13   -0.0008356   0.0022609
   14    0.0010944   0.0081888
   15   -0.0037645  -0.0136745
   16    0.0016755  -0.0029317
   17    0.0016152   0.0241685
   18    0.0009053  -0.0000800
   19    0.0000000   0.0176846
   20    0.0025451  -0.0160325
  
 TD-CP-MCSCF X for atom=                       5 xyz=                       1
          v(    1)    v(    2)
    1    0.0001282  -0.0015333
    2    0.0005106   0.0014867
    3   -0.0004989   0.0225972
    4   -0.0042579  -0.0140772
    5    0.0021043  -0.0616464
    6    0.0057516  -0.0382033
    7   -0.0074977  -0.0500893
    8   -0.0152227  -0.0411192
    9   -0.0019265  -0.0518300
   10    0.0000964   0.0902434
   11   -0.0000319   0.0005495
   12   -0.0000230   0.0008144
   13    0.0237946  -0.0008336
   14   -0.0126067   0.0145803
   15   -0.1412110  -0.0068304
   16   -0.0996390  -0.0662382
   17   -0.1239370  -0.0441062
   18   -0.0838804  -0.0612028
   19    0.0000000  -0.0412223
   20   -0.0006698  -0.0561380
  
 TD-CP-MCSCF X for atom=                       5 xyz=                       2
          v(    1)    v(    2)
    1   -0.0006576   0.0115323
    2   -0.0036060  -0.0114446
    3    0.0035715  -0.0313096
    4    0.0224798   0.0290794
    5   -0.0157421  -0.0128485
    6   -0.0542162   0.0113950
    7   -0.0568992  -0.0096530
    8   -0.0504254   0.0197335
    9   -0.0525089  -0.0039895
   10    0.0002594   0.0096239
   11    0.0009916  -0.0023607
   12   -0.0009897  -0.0057326
   13   -0.0026200   0.0056700
   14    0.0024390   0.0235471
   15   -0.0191802  -0.0207311
   16   -0.0113557  -0.0064606
   17   -0.0103289  -0.0202130
   18   -0.0064918  -0.0062186
   19    0.0000000  -0.0240430
   20    0.0034120  -0.0155274
  
 TD-CP-MCSCF X for atom=                       5 xyz=                       3
          v(    1)    v(    2)
    1    0.0006715  -0.0028408
    2    0.0010276   0.0029638
    3   -0.0010067   0.0050864
    4   -0.0126684  -0.0225983
    5    0.0097351   0.0114339
    6   -0.0086337   0.0450600
    7   -0.0659688   0.0087078
    8   -0.0080332   0.0418121
    9   -0.0418761   0.0322187
   10   -0.0002897  -0.0113030
   11   -0.0002421   0.0032600
   12    0.0002534   0.0013880
   13   -0.0016477  -0.0014970
   14   -0.0005676  -0.0006791
   15    0.0059946   0.0125485
   16    0.0116043  -0.0161620
   17    0.0171244  -0.0365495
   18    0.0104815  -0.0145237
   19    0.0000000  -0.0321380
   20   -0.0043857  -0.0303021
  
 TD-CP-MCSCF X for atom=                       6 xyz=                       1
          v(    1)    v(    2)
    1    0.0001191  -0.0095256
    2   -0.0004606  -0.0094232
    3   -0.0004604   0.0283613
    4   -0.0043952   0.0222303
    5   -0.0017655   0.0219013
    6    0.0358520  -0.0205450
    7    0.0248201  -0.0220955
    8   -0.0385455   0.0271721
    9   -0.0171271  -0.0207430
   10   -0.0006085   0.0217192
   11    0.0033700   0.0012848
   12    0.0033353  -0.0037123
   13   -0.0172753  -0.0036470
   14   -0.0107872   0.0201112
   15    0.0163626   0.0148930
   16    0.0512782  -0.0082868
   17   -0.0231822  -0.0291282
   18   -0.0428201   0.0084801
   19    0.0000000   0.0288598
   20    0.0021909  -0.0200207
  
 TD-CP-MCSCF X for atom=                       6 xyz=                       2
          v(    1)    v(    2)
    1    0.0000424   0.0021791
    2   -0.0000061   0.0021472
    3   -0.0000246  -0.0232038
    4   -0.0229644  -0.0141485
    5   -0.0111533   0.0493977
    6    0.1283103   0.0490628
    7    0.0912316  -0.0533871
    8   -0.1398863  -0.0445990
    9   -0.0682151  -0.0868213
   10    0.0001261   0.0639196
   11   -0.0007862  -0.0002544
   12   -0.0007935   0.0009329
   13    0.0046997   0.0009251
   14    0.0029499   0.0134354
   15   -0.0060867   0.0061623
   16   -0.0097091  -0.0567383
   17   -0.0110710  -0.0362973
   18    0.0108695   0.0617356
   19    0.0000000   0.0320583
   20   -0.0004665  -0.0597571
  
 TD-CP-MCSCF X for atom=                       6 xyz=                       3
          v(    1)    v(    2)
    1   -0.0001534   0.0064720
    2    0.0002939   0.0064294
    3    0.0002925  -0.0187183
    4   -0.0014719  -0.0264702
    5   -0.0019773   0.0096753
    6    0.0032396  -0.0265523
    7    0.0008539  -0.0121956
    8    0.0004038   0.0171431
    9   -0.0001111   0.0006699
   10    0.0008082  -0.0214551
   11   -0.0023482  -0.0020936
   12   -0.0023139   0.0025287
   13    0.0188218   0.0025053
   14    0.0150042  -0.0097225
   15   -0.0420668  -0.0141766
   16    0.0102523   0.0046690
   17    0.0460420  -0.0190494
   18    0.0000695  -0.0054696
   19    0.0000000   0.0111861
   20   -0.0033297   0.0035041
  
 TD-CP-MCSCF X for atom=                       7 xyz=                       1
          v(    1)    v(    2)
    1    0.0001456  -0.0090327
    2   -0.0005717  -0.0089389
    3   -0.0005705   0.0259613
    4   -0.0027826   0.0202428
    5   -0.0006996  -0.0222629
    6   -0.0367791  -0.0216985
    7    0.0213862   0.0241898
    8    0.0374876   0.0252782
    9   -0.0165448   0.0209243
   10   -0.0005940  -0.0208741
   11    0.0033431   0.0011495
   12    0.0033215  -0.0035141
   13   -0.0171874  -0.0034524
   14   -0.0110177   0.0196756
   15   -0.0227347   0.0142731
   16    0.0550525   0.0116117
   17    0.0279213  -0.0311232
   18   -0.0465521  -0.0104814
   19    0.0000000   0.0304275
   20    0.0019797   0.0163349
  
 TD-CP-MCSCF X for atom=                       7 xyz=                       2
          v(    1)    v(    2)
    1    0.0000511   0.0025731
    2    0.0000876   0.0025369
    3    0.0000678  -0.0249575
    4   -0.0223531  -0.0147260
    5   -0.0107517  -0.0511261
    6   -0.1354846   0.0404877
    7    0.0874994   0.0527093
    8    0.1434080  -0.0452154
    9   -0.0746878   0.0851426
   10    0.0001796  -0.0625339
   11   -0.0009754  -0.0003839
   12   -0.0009535   0.0010523
   13    0.0077284   0.0010557
   14    0.0035146   0.0115489
   15    0.0111674   0.0053170
   16   -0.0077632   0.0570258
   17    0.0062754  -0.0339732
   18    0.0114819  -0.0599721
   19    0.0000000   0.0327313
   20   -0.0006380   0.0581163
  
 TD-CP-MCSCF X for atom=                       7 xyz=                       3
          v(    1)    v(    2)
    1    0.0002264  -0.0067363
    2   -0.0004114  -0.0066617
    3   -0.0004069   0.0203169
    4    0.0004185   0.0270514
    5    0.0011973   0.0048004
    6   -0.0090258   0.0272335
    7    0.0098954  -0.0081621
    8    0.0128351  -0.0162481
    9   -0.0067868   0.0084669
   10   -0.0009427  -0.0235349
   11    0.0025622   0.0023009
   12    0.0025235  -0.0026320
   13   -0.0198961  -0.0025840
   14   -0.0156138   0.0116836
   15   -0.0388802   0.0148649
   16   -0.0115995   0.0055261
   17    0.0433286   0.0167479
   18   -0.0028059  -0.0070076
   19    0.0000000  -0.0078588
   20    0.0036457   0.0105511
   What a disaster!
   For derivative idrv=                       5 Cu is zero!
  
   What a disaster!
   For derivative idrv=                       7 Cu is zero!
  
   What a disaster!
   For derivative idrv=                       9 Cu is zero!
  
   What a disaster!
   For derivative idrv=                      12 Cu is zero!
  
   What a disaster!
   For derivative idrv=                      13 Cu is zero!
  
   What a disaster!
   For derivative idrv=                      18 Cu is zero!
  
   What a disaster!
   For derivative idrv=                      19 Cu is zero!
  
   What a disaster!
   For derivative idrv=                      20 Cu is zero!
  
   What a disaster!
   For derivative idrv=                      21 Cu is zero!
  
 Final TD Derivative
        -0.0102179047       -0.0195589493       -0.1026232187
         0.0286021399       -0.0987167232        0.0671175643
         0.0094704311       -0.0034255096        0.0863035037
        -0.0167044576        0.0768705277        0.0218643369
        -0.0054803006        0.0411179317       -0.0513910467
        -0.0073696771        0.0002442426       -0.0112965319
         0.0016997690        0.0034684800       -0.0099746076
 using TD gradient
 d2emc:  iwhgrd=                       7 igrdif=                       1
  inonop=                       5
     State    2   State    1
     Energy difference=     -0.0493361
  Crude BS vectors
 Derivative Coupling 
        -0.0035451404        0.0003730376        0.2525755425
         0.0010573923        0.0064531696       -0.1200023419
         0.0040689267       -0.0049340591       -0.1335444283
        -0.0053354990        0.0089517051        0.0005864727
         0.0029653184       -0.0115594465       -0.0094233307
        -0.0081525352       -0.0074972995        0.0050213990
         0.0089415371        0.0082128928        0.0047866868
 Unscaled Gradient Difference 
        -0.0135020357       -0.0028201146       -0.1245918355
        -0.0100741418        0.0157006019        0.0134412214
         0.0073110277       -0.0145194816        0.1151463547
        -0.0352262551       -0.0116424966       -0.0017496262
         0.0524915671        0.0113629733       -0.0065704435
        -0.0114750315       -0.0516247040       -0.0012937069
         0.0104748692        0.0535432215        0.0056180360
 Gradient of iOther State 
        -0.0991328803       -0.0380653740        0.1059634277
         0.0562831001       -0.0150931954        0.3108172295
         0.0642473784       -0.0075303373       -0.1287160998
        -0.0592346208        0.3525723902        0.1287463981
         0.0283038164       -0.3074095965       -0.0324934798
         0.2380046353       -0.0501272801       -0.1941489711
        -0.2284714290        0.0656533930       -0.1901685045
 Gradient of iVec State. 
        -0.0201695283       -0.0218998215       -0.1202538777
         0.0212161849       -0.0850459704        0.0429776803
         0.0157592229       -0.0144711241        0.1264621571
        -0.0436509032        0.0729203061        0.0214679184
         0.0330276852        0.0432144291       -0.0579864087
        -0.0204626740       -0.0385474214       -0.0094961732
         0.0142800124        0.0438296022       -0.0031712962
 Angle of DC    (L=0.3111) and GD    (L=0.1997) is 139.18 degs
 Angle of GriVec(L=0.2438) and GrOthr(L=0.7573) is  86.74 degs
 Gradient of iOther State 
        -0.0991328803       -0.0380653740        0.1059634277
         0.0562831001       -0.0150931954        0.3108172295
         0.0642473784       -0.0075303373       -0.1287160998
        -0.0592346208        0.3525723902        0.1287463981
         0.0283038164       -0.3074095965       -0.0324934798
         0.2380046353       -0.0501272801       -0.1941489711
        -0.2284714290        0.0656533930       -0.1901685045
 Gradient of iVec State. 
        -0.0201695283       -0.0218998215       -0.1202538777
         0.0212161849       -0.0850459704        0.0429776803
         0.0157592229       -0.0144711241        0.1264621571
        -0.0436509032        0.0729203061        0.0214679184
         0.0330276852        0.0432144291       -0.0579864087
        -0.0204626740       -0.0385474214       -0.0094961732
         0.0142800124        0.0438296022       -0.0031712962
 The angle between DerCp and UGrDif has cos=-0.757
 and it is: 2.429 rad or :139.18 degrees.
 The length**2 of DerCp is:0.0968 and GrDif is:1.0000
 But the length of DerCp is:0.3111 and GrDif is:1.0000
 ------------------ Projection to constraints complement -----------
 Angle of DerCp (L=0.3111) and UGrDif(L=1.0000) is 139.18 degs
 Angle of Force (L=0.2438) and UGrDif(L=1.0000) is  40.18 degs
 Angle of Force (L=0.2438) and DerCp (L=0.3111) is 132.06 degs
 Projected Gradient of iVec State. 
        -0.0108481485       -0.0197655275        0.0137679340
         0.0287940992       -0.0954929568        0.0129107751
         0.0110736007       -0.0046361005        0.0194087367
        -0.0186732340        0.0829786894        0.0228517994
        -0.0050310977        0.0329225473       -0.0547458069
        -0.0134055523       -0.0018880224       -0.0077008926
         0.0080903326        0.0058813705       -0.0064925458
 Projected Ivec Gradient: RMS= 0.03351 MAX= 0.09549
 Leave Link 1003 at Thu Feb 11 16:23:42 2021, MaxMem=   458752000 cpu:               7.9 elap:               8.0
 (Enter /rds/general/project/gaussian-development/live/home/gaussiangdvJ05_pgi_18/gdv/l601.exe)
 Copying SCF densities to generalized density rwf, IOpCl= 0 IROHF=3.

 **********************************************************************

            Population analysis using the SCF Density.

 **********************************************************************

 Alpha  occ. eigenvalues --    0.00000   0.00000   0.00000   0.00000   0.00000
 Alpha  occ. eigenvalues --    0.00000   0.00000   0.00000   0.00000   0.00000
 Alpha  occ. eigenvalues --    0.00000
 Alpha virt. eigenvalues --    0.00000   0.00000   0.00000   0.00000   0.00000
 Alpha virt. eigenvalues --    0.00000   0.00000   0.00000   0.00000   0.00000
 Alpha virt. eigenvalues --    0.00000   0.00000   0.00000   0.00000   0.00000
 Alpha virt. eigenvalues --    0.00000   0.00000   0.00000   0.00000   0.00000
 Alpha virt. eigenvalues --    0.00000   0.00000   0.00000   0.00000   0.00000
 Alpha virt. eigenvalues --    0.00000   0.00000   0.00000   0.00000   0.00000
 Alpha virt. eigenvalues --    0.00000   0.00000   0.00000   0.00000   0.00000
 Alpha virt. eigenvalues --    0.00000   0.00000   0.00000   0.00000   0.00000
 Alpha virt. eigenvalues --    0.00000   0.00000
     Molecular Orbital Coefficients:
                           1         2         3         4         5
                           O         O         O         O         O
     Eigenvalues --     0.00000   0.00000   0.00000   0.00000   0.00000
   1 1   C  1S          0.99216   0.00013   0.08236  -0.00554  -0.16994
   2        2S          0.02682   0.00035   0.00242   0.01061   0.34249
   3        2PX         0.00012   0.00002   0.00008   0.00094   0.01432
   4        2PY        -0.00003  -0.00001   0.00001  -0.00575   0.00574
   5        2PZ        -0.00025  -0.00069  -0.00012  -0.30814  -0.00403
   6        3S         -0.00970   0.00045  -0.00788  -0.00736   0.19955
   7        3PX        -0.00037  -0.00006  -0.00024  -0.00058   0.00416
   8        3PY        -0.00011   0.00011  -0.00011   0.00241  -0.00256
   9        3PZ         0.00105   0.00106  -0.00147   0.01198   0.02829
  10        4XX        -0.00277   0.00013   0.00006  -0.00263  -0.01368
  11        4YY        -0.00278  -0.00010   0.00007   0.00084  -0.01308
  12        4ZZ         0.00022  -0.00013   0.00088  -0.00256   0.02746
  13        4XY         0.00000  -0.00001  -0.00004   0.00034  -0.00002
  14        4XZ        -0.00000  -0.00005   0.00002  -0.00278  -0.00000
  15        4YZ        -0.00001  -0.00000  -0.00001  -0.00010   0.00013
  16 2   C  1S          0.05741   0.70409  -0.70183   0.13973  -0.11376
  17        2S          0.00128   0.01887  -0.01905  -0.27815   0.22622
  18        2PX         0.00008  -0.00004   0.00008   0.00722  -0.00590
  19        2PY         0.00001  -0.00019   0.00014   0.01221  -0.00603
  20        2PZ         0.00066  -0.00083   0.00087   0.06794  -0.10758
  21        3S          0.00150  -0.00704   0.00998  -0.27048   0.14313
  22        3PX         0.00001   0.00007  -0.00013   0.00696  -0.00220
  23        3PY         0.00044   0.00021  -0.00042  -0.01581   0.00928
  24        3PZ        -0.00115   0.00075  -0.00214   0.02597  -0.00532
  25        4XX        -0.00029  -0.00176   0.00168   0.01320  -0.01034
  26        4YY        -0.00033  -0.00120   0.00121  -0.01340   0.00634
  27        4ZZ        -0.00106  -0.00103   0.00094  -0.00864   0.01314
  28        4XY        -0.00001  -0.00007   0.00006   0.00438  -0.00303
  29        4XZ        -0.00014   0.00004  -0.00005  -0.00164   0.00102
  30        4YZ        -0.00003  -0.00005   0.00004  -0.00227   0.00173
  31 3   C  1S          0.05741  -0.70404  -0.70162  -0.14560  -0.11650
  32        2S          0.00083  -0.01938  -0.01973   0.28372   0.22729
  33        2PX         0.00007   0.00005   0.00014  -0.00676  -0.00392
  34        2PY         0.00003   0.00003   0.00003  -0.00253  -0.00002
  35        2PZ        -0.00091  -0.00055  -0.00093   0.05902   0.10437
  36        3S          0.00360   0.00688   0.00784   0.27684   0.17417
  37        3PX         0.00014   0.00012  -0.00000  -0.00268  -0.00466
  38        3PY        -0.00002  -0.00005   0.00003  -0.00342   0.00248
  39        3PZ         0.00198  -0.00003   0.00053   0.01740   0.01113
  40        4XX        -0.00037   0.00153   0.00152   0.00608   0.00111
  41        4YY        -0.00032   0.00198   0.00195  -0.01291  -0.00939
  42        4ZZ        -0.00089   0.00097   0.00077   0.01722   0.01576
  43        4XY        -0.00001   0.00013   0.00012  -0.00599  -0.00369
  44        4XZ         0.00010   0.00004   0.00010  -0.00198  -0.00113
  45        4YZ         0.00004   0.00001   0.00003  -0.00143  -0.00024
  46 4   H  1S         -0.00017  -0.00010   0.00001  -0.07495   0.04757
  47        2S          0.00009   0.00098  -0.00086  -0.01761   0.00490
  48 5   H  1S         -0.00010  -0.00017   0.00011  -0.09471   0.06226
  49        2S          0.00064   0.00150  -0.00154  -0.01653  -0.00073
  50 6   H  1S         -0.00011   0.00012   0.00010   0.08531   0.05155
  51        2S          0.00017  -0.00149  -0.00137   0.01176   0.00239
  52 7   H  1S         -0.00010   0.00009   0.00002   0.08593   0.04996
  53        2S          0.00040  -0.00137  -0.00141   0.01202  -0.00250
                           6         7         8         9        10
                           O         O         O         O         O
     Eigenvalues --     0.00000   0.00000   0.00000   0.00000   0.00000
   1 1   C  1S         -0.00066   0.00008   0.00556   0.11493   0.00604
   2        2S         -0.00227  -0.00323  -0.01368  -0.24203  -0.01275
   3        2PX        -0.08789   0.00121   0.11254  -0.01245   0.04803
   4        2PY        -0.07393  -0.01249  -0.10206  -0.00233   0.41932
   5        2PZ         0.00245  -0.37414  -0.00861  -0.01120  -0.01687
   6        3S         -0.00855  -0.04512  -0.01408  -0.23934  -0.03370
   7        3PX        -0.01696   0.00357   0.01928  -0.00369   0.01482
   8        3PY        -0.01545  -0.01037  -0.01733  -0.00648   0.30748
   9        3PZ         0.03643  -0.05693  -0.00653  -0.04672   0.00523
  10        4XX        -0.00232  -0.00324   0.00114   0.00644   0.00055
  11        4YY         0.00015   0.00107   0.00063   0.00706   0.00002
  12        4ZZ         0.00365   0.00367  -0.00135  -0.00925  -0.00030
  13        4XY        -0.00100  -0.00002  -0.00100  -0.00055   0.00248
  14        4XZ         0.01201  -0.00201  -0.00922   0.00051  -0.00522
  15        4YZ        -0.01222  -0.00137  -0.00476  -0.00120  -0.03157
  16 2   C  1S          0.00108  -0.02529  -0.00044  -0.07658  -0.00268
  17        2S          0.00542   0.05157   0.00658   0.15512   0.00893
  18        2PX         0.02338   0.02173   0.06072   0.01021   0.01908
  19        2PY        -0.35031  -0.02548  -0.30187  -0.01860  -0.08888
  20        2PZ        -0.01438   0.33491   0.00068   0.26724   0.00971
  21        3S         -0.05619   0.08922  -0.01987   0.24104  -0.00288
  22        3PX         0.01505   0.00468   0.03338  -0.00307   0.00264
  23        3PY        -0.20140   0.01462  -0.17659   0.02403  -0.11551
  24        3PZ        -0.00884   0.13014  -0.01356   0.07362   0.00180
  25        4XX        -0.00173  -0.00032  -0.00268  -0.00558  -0.00074
  26        4YY         0.00623   0.02966   0.00687   0.03222   0.00245
  27        4ZZ        -0.00768  -0.02192  -0.00504  -0.01669  -0.00245
  28        4XY         0.00025  -0.00484  -0.00046  -0.00594  -0.00134
  29        4XZ         0.00608  -0.00324  -0.00410  -0.00138  -0.00036
  30        4YZ        -0.01094   0.00058  -0.00798   0.00157  -0.02481
  31 3   C  1S          0.00085   0.01592  -0.00321  -0.06908  -0.00250
  32        2S         -0.00375  -0.03416   0.00841   0.14011   0.00625
  33        2PX        -0.31200  -0.02855   0.33628   0.00296   0.09094
  34        2PY         0.05199  -0.00986  -0.09855   0.00578   0.37464
  35        2PZ        -0.02037   0.35171   0.01339  -0.27219   0.02482
  36        3S          0.03021  -0.06062   0.00437   0.17172   0.01504
  37        3PX        -0.17203  -0.01494   0.18339  -0.00044   0.06383
  38        3PY         0.02948  -0.00183  -0.05033   0.00464   0.24450
  39        3PZ         0.00335   0.13370   0.00548  -0.09194   0.01829
  40        4XX         0.00045  -0.02434   0.00042   0.02374  -0.00072
  41        4YY         0.00024  -0.00018  -0.00014  -0.00499  -0.00109
  42        4ZZ        -0.00056   0.00889  -0.00015  -0.00357   0.00162
  43        4XY        -0.00047   0.00734   0.00075  -0.00859  -0.00216
  44        4XZ         0.01662  -0.00141  -0.01759   0.00116   0.00242
  45        4YZ        -0.00899  -0.00074   0.00021  -0.00032   0.03282
  46 4   H  1S         -0.16177   0.10957  -0.13302   0.12885  -0.07115
  47        2S         -0.07666   0.06881  -0.05655   0.06816  -0.05695
  48 5   H  1S          0.17601   0.11190   0.15618   0.13138   0.07472
  49        2S          0.05045   0.07493   0.04315   0.07177   0.04340
  50 6   H  1S         -0.14664  -0.12898   0.16333   0.13284   0.00706
  51        2S         -0.06672  -0.05560   0.07164   0.04783   0.01430
  52 7   H  1S          0.15249  -0.11654  -0.16168   0.13770  -0.01027
  53        2S          0.07329  -0.05748  -0.07569   0.05210  -0.01854
                          11        12        13        14        15
                           O         V         V         V         V
     Eigenvalues --     0.00000   0.00000   0.00000   0.00000   0.00000
   1 1   C  1S          0.00879  -0.01032  -0.00014   0.00743  -0.13540
   2        2S         -0.02194   0.03787   0.00647   0.00396   0.14703
   3        2PX         0.41186  -0.24025  -0.26680  -0.00499   0.13176
   4        2PY        -0.03540  -0.25164   0.31411   0.02784   0.02544
   5        2PZ         0.00272   0.02965  -0.00019   0.55659   0.07354
   6        3S         -0.01315   0.03769  -0.00428   0.03357   4.13654
   7        3PX         0.33044  -0.35748  -0.42561   0.00732   0.09783
   8        3PY        -0.04534  -0.35916   0.47768   0.02313   0.03196
   9        3PZ        -0.02972   0.00151  -0.01194  -2.05964  -0.16788
  10        4XX         0.00324  -0.00033  -0.00073  -0.02642   0.01320
  11        4YY        -0.00152  -0.00200  -0.00103   0.02681   0.01707
  12        4ZZ        -0.00320   0.00245   0.00186  -0.00137  -0.01925
  13        4XY        -0.00024  -0.00001   0.00050   0.00039  -0.00726
  14        4XZ         0.02848   0.02466   0.01702  -0.00526   0.00098
  15        4YZ         0.00445  -0.02784   0.01602   0.00136   0.00072
  16 2   C  1S         -0.00565   0.00791  -0.00483   0.05215   0.06535
  17        2S          0.01377   0.01875   0.00540   0.54760  -0.01457
  18        2PX         0.36796   0.33505   0.21878  -0.04635   0.05559
  19        2PY         0.06282  -0.03909   0.05331   0.00840  -0.00972
  20        2PZ        -0.04033  -0.02536   0.00017   0.09504   0.21753
  21        3S          0.02733   0.00244   0.00871   0.03475  -1.15328
  22        3PX         0.25435   0.42036   0.49299  -0.04223   0.01197
  23        3PY         0.05191  -0.21690   0.01764   0.01971  -0.00727
  24        3PZ        -0.02611  -0.01239  -0.00695  -0.75097   1.65917
  25        4XX        -0.00331  -0.00415  -0.00076  -0.04468  -0.00995
  26        4YY        -0.00144   0.00039   0.00158   0.07856  -0.00837
  27        4ZZ         0.00529   0.00470  -0.00208   0.14688   0.02369
  28        4XY        -0.00405   0.00291  -0.00090   0.06601  -0.00612
  29        4XZ        -0.03328   0.01977   0.01486  -0.00030  -0.00807
  30        4YZ         0.00270   0.04174  -0.02983  -0.00242  -0.00231
  31 3   C  1S         -0.00073   0.00353   0.00163  -0.05590   0.06100
  32        2S          0.00324   0.00199   0.00244  -0.56204  -0.18518
  33        2PX        -0.09225   0.00216  -0.05485   0.03358   0.06240
  34        2PY        -0.00184   0.35558  -0.21328  -0.00589   0.00130
  35        2PZ        -0.00389   0.00065  -0.00666   0.08987  -0.20810
  36        3S         -0.03750  -0.00794  -0.00407  -0.04738  -1.19755
  37        3PX        -0.12732  -0.18650  -0.00313   0.02918   0.03985
  38        3PY        -0.00638   0.43637  -0.51234  -0.00930   0.00686
  39        3PZ        -0.02246  -0.00488  -0.00658  -0.76907  -1.79211
  40        4XX        -0.00223  -0.00027  -0.00045  -0.08008  -0.03164
  41        4YY         0.00014   0.00090   0.00021   0.04376   0.00069
  42        4ZZ         0.00340  -0.00029   0.00021  -0.14015   0.00287
  43        4XY        -0.00038   0.00070  -0.00002  -0.06931  -0.01765
  44        4XZ         0.03189  -0.04034  -0.02381   0.00066   0.01073
  45        4YZ        -0.00667  -0.01896   0.01845   0.00107  -0.00069
  46 4   H  1S          0.01035   0.15063  -0.00576   0.36123  -0.00515
  47        2S          0.01564   0.30222  -0.24370   0.17950  -0.39488
  48 5   H  1S         -0.01585  -0.13553   0.01079   0.37315   0.00261
  49        2S         -0.01983  -0.31844   0.24916   0.18955  -0.36757
  50 6   H  1S         -0.08675   0.16135  -0.00683  -0.35637  -0.09783
  51        2S         -0.06859   0.31219   0.21460  -0.19387  -0.44347
  52 7   H  1S          0.09012  -0.16082   0.00978  -0.36569  -0.07680
  53        2S          0.07379  -0.31253  -0.21518  -0.17918  -0.39918
                          16        17        18        19        20
                           V         V         V         V         V
     Eigenvalues --     0.00000   0.00000   0.00000   0.00000   0.00000
   1 1   C  1S          0.00613   0.00826   0.00261   0.04299  -0.00921
   2        2S          0.03107  -0.01751  -0.28143   0.61894   0.04484
   3        2PX         0.00108   0.39478  -0.00172   0.02070   0.02671
   4        2PY        -0.02597  -0.38079  -0.00920   0.02794   0.06050
   5        2PZ        -0.16230  -0.00098   0.03081   0.04800   0.00719
   6        3S         -0.08386  -0.29483   0.31592   0.31594   0.72871
   7        3PX         0.00779  -0.35737   0.01830   0.00980   0.00576
   8        3PY        -0.02487   0.37121  -0.02611   0.03703   0.07132
   9        3PZ        -0.53994   0.01281  -0.00518   0.00617  -0.03968
  10        4XX         0.01223  -0.00102  -0.01299   0.00270  -0.00356
  11        4YY        -0.01549  -0.00056  -0.01022   0.00677   0.01296
  12        4ZZ         0.00153   0.00101   0.03603   0.20663   0.02088
  13        4XY        -0.00010   0.00086  -0.01741   0.00285  -0.00058
  14        4XZ        -0.00193   0.02840  -0.00067   0.00002  -0.00068
  15        4YZ         0.00079   0.02813  -0.00069   0.00158   0.00136
  16 2   C  1S          0.00336  -0.00414   0.01015   0.01154   0.09691
  17        2S         -0.70914   0.00956  -0.75857   0.49721  -0.16561
  18        2PX        -0.01981   0.48997  -0.01247   0.00663   0.00467
  19        2PY         0.01041  -0.33903   0.02185  -0.00652  -0.00948
  20        2PZ        -0.57592   0.00281  -0.40243  -0.42948  -0.17545
  21        3S          2.07096   0.02888   1.56344  -1.11251  -1.36673
  22        3PX        -0.03613  -0.39627  -0.00268   0.00729   0.00356
  23        3PY         0.01507   0.43553  -0.00214   0.00352   0.01222
  24        3PZ         0.43416  -0.13311   0.53829   0.72897  -0.12102
  25        4XX        -0.06888   0.00296  -0.08177   0.02283  -0.00377
  26        4YY         0.04255  -0.00053   0.04199   0.01608   0.01431
  27        4ZZ        -0.09713   0.00033  -0.10942   0.02287  -0.01098
  28        4XY         0.07200  -0.00149   0.06502  -0.00779   0.00534
  29        4XZ         0.00227  -0.04654   0.00203  -0.00261  -0.00562
  30        4YZ         0.00213   0.00266   0.00200  -0.00369  -0.00550
  31 3   C  1S         -0.01389  -0.00277   0.00693   0.01137  -0.06346
  32        2S          0.70960  -0.00821  -0.88435   0.31213   0.16251
  33        2PX         0.01018   0.33179  -0.00516   0.01520   0.02602
  34        2PY        -0.00280  -0.49165   0.01293  -0.01520  -0.01538
  35        2PZ        -0.51120   0.02220   0.46839   0.52222  -0.16991
  36        3S         -2.03256   0.13282   1.89369  -0.74749   0.86440
  37        3PX         0.01467  -0.43374   0.01306   0.00802   0.00071
  38        3PY         0.00951   0.38909   0.00292  -0.02610  -0.02272
  39        3PZ         0.53838   0.10849  -0.65726  -0.85664  -0.94824
  40        4XX        -0.04827   0.00370   0.05006   0.01675  -0.00824
  41        4YY         0.06982  -0.00134  -0.09230   0.01450   0.00199
  42        4ZZ         0.10076  -0.00400  -0.13022  -0.00491   0.00675
  43        4XY        -0.07038   0.00309   0.07225   0.00182  -0.00732
  44        4XZ        -0.00037   0.00448   0.00047   0.00170   0.00289
  45        4YZ        -0.00134  -0.04491   0.00017   0.00120   0.00225
  46 4   H  1S          0.43001  -0.10472   0.42385  -0.05131   0.05419
  47        2S         -0.91229  -0.04224  -0.86791   0.24918   0.85476
  48 5   H  1S          0.42088   0.07870   0.39805  -0.03527   0.07990
  49        2S         -0.93229   0.14595  -0.89321   0.29366   0.92124
  50 6   H  1S         -0.43343   0.10169   0.47523   0.00100  -0.05209
  51        2S          0.91729   0.08989  -1.03480   0.09048  -1.01564
  52 7   H  1S         -0.44430  -0.06820   0.47695   0.00676  -0.04212
  53        2S          0.94076  -0.07556  -1.01662   0.09262  -1.02361
                          21        22        23        24        25
                           V         V         V         V         V
     Eigenvalues --     0.00000   0.00000   0.00000   0.00000   0.00000
   1 1   C  1S          0.01237  -0.00978   0.03927   0.01434  -0.00657
   2        2S          0.04431  -0.02616   0.04307  -0.03317  -0.03653
   3        2PX        -0.09919  -0.32372  -0.05124   0.47426  -0.25712
   4        2PY        -0.06295   0.23875  -0.02050   0.53217  -0.22812
   5        2PZ         0.01105  -0.01559   0.07857  -0.00734  -0.00677
   6        3S          0.05028  -0.12992  -0.67916  -0.48526  -0.11147
   7        3PX        -0.55947  -0.42591  -0.02569  -0.64005   0.99011
   8        3PY        -0.44102   0.40236   0.00482  -0.54054   0.99139
   9        3PZ        -0.16248   0.21780  -0.08676  -0.01873   0.09368
  10        4XX        -0.00397  -0.00065  -0.00555  -0.00188   0.00201
  11        4YY         0.00530  -0.00736  -0.00060  -0.00222  -0.00110
  12        4ZZ         0.01917  -0.02459   0.02466  -0.00390  -0.00873
  13        4XY         0.00074  -0.00336  -0.00901   0.00024   0.00007
  14        4XZ        -0.02547  -0.01669  -0.00040   0.04187   0.10646
  15        4YZ         0.03095  -0.01848  -0.00539  -0.04394  -0.11060
  16 2   C  1S          0.00349   0.00016  -0.09234  -0.01068  -0.00648
  17        2S          0.05918  -0.03766   0.26826   0.00261   0.00915
  18        2PX        -0.10205   0.00536   0.00285   0.48841   0.05817
  19        2PY         0.28644  -0.17650  -0.02849   0.06782   0.18085
  20        2PZ        -0.00712  -0.01203   0.03566  -0.00831   0.02851
  21        3S         -0.28508   0.32044   1.16484   0.26542   0.04869
  22        3PX         0.30612   0.51384   0.02835  -0.39407  -0.38464
  23        3PY         1.08268  -1.59955  -0.21604   0.13142  -1.20771
  24        3PZ        -0.01479  -0.04296   0.07187  -0.18389  -0.02692
  25        4XX         0.00372  -0.00576   0.00512  -0.00099   0.00178
  26        4YY         0.01023  -0.01222  -0.00772   0.00172  -0.00517
  27        4ZZ         0.00722  -0.00384   0.01931  -0.00185  -0.00008
  28        4XY        -0.00346   0.00431  -0.00473   0.00202  -0.00184
  29        4XZ         0.01205   0.04472   0.00908  -0.03796  -0.02878
  30        4YZ        -0.00382   0.00417   0.00563  -0.00356   0.19893
  31 3   C  1S         -0.00904   0.00907  -0.11137  -0.00592   0.00140
  32        2S          0.02336   0.00591   0.15989   0.02371  -0.01014
  33        2PX         0.29624   0.11039  -0.00619   0.08335   0.17012
  34        2PY        -0.16656  -0.06254   0.02670   0.47147   0.08247
  35        2PZ         0.05055  -0.01360  -0.06893   0.00286  -0.01892
  36        3S          0.02956   0.04865   1.65648   0.11667   0.01905
  37        3PX         1.02933   1.51341   0.09603   0.43964  -0.95156
  38        3PY         0.27606  -0.57690  -0.02980  -0.49798  -0.45497
  39        3PZ        -0.19925   0.32172  -0.35438   0.23848   0.10841
  40        4XX        -0.00474   0.00416  -0.00467   0.00100   0.00314
  41        4YY         0.00416  -0.00908   0.00218   0.00113  -0.00143
  42        4ZZ        -0.00852   0.01576  -0.00989   0.00048   0.00385
  43        4XY        -0.00766   0.00715  -0.00656  -0.00093   0.00401
  44        4XZ        -0.00329  -0.00375  -0.00256   0.00279  -0.19500
  45        4YZ        -0.01247   0.03840   0.00170   0.04582   0.03497
  46 4   H  1S          0.03264   0.07746  -0.04023   0.09982   0.42805
  47        2S         -0.92368   1.21005  -0.51284  -0.18334   0.04947
  48 5   H  1S          0.01240  -0.11487  -0.08234  -0.07603  -0.46938
  49        2S          1.28112  -1.55967  -0.94460   0.12320  -0.10052
  50 6   H  1S         -0.02358  -0.06913  -0.04668   0.05876   0.43696
  51        2S         -1.18259  -1.21968  -1.11397  -0.38033  -0.12003
  52 7   H  1S         -0.05335   0.14289  -0.04337  -0.06646  -0.40215
  53        2S          0.97175   1.46240  -0.97036   0.52229   0.20927
                          26        27        28        29        30
                           V         V         V         V         V
     Eigenvalues --     0.00000   0.00000   0.00000   0.00000   0.00000
   1 1   C  1S         -0.00175   0.02591   0.00181   0.05585  -0.00711
   2        2S          0.05492   1.61038   0.06789  -0.73265  -0.06735
   3        2PX        -0.44947   0.01307   0.02623   0.00320  -0.47653
   4        2PY        -0.46010   0.04268   0.00218  -0.00143   0.47396
   5        2PZ         0.01581  -0.00336  -0.60325  -0.00974  -0.16122
   6        3S          0.40887  -7.25749  -1.41427   0.67773   0.45187
   7        3PX         0.32015  -0.29568   0.00197   0.01504   1.50046
   8        3PY         0.39066  -0.15343   0.12628   0.03458  -1.43813
   9        3PZ        -0.17051  -0.03959  12.09906   0.98251   2.58246
  10        4XX        -0.00142   0.13281  -0.03255  -0.07520  -0.01118
  11        4YY         0.00731   0.13379   0.06559  -0.06428   0.00801
  12        4ZZ         0.01865  -0.11262   0.01844   0.07170   0.02515
  13        4XY         0.00115  -0.05479  -0.00603  -0.02914   0.00235
  14        4XZ         0.05214  -0.00109   0.03179   0.00283   0.06503
  15        4YZ        -0.04310   0.00028   0.00067  -0.00411   0.07316
  16 2   C  1S          0.01491  -0.04536   0.06132  -0.04938   0.01394
  17        2S          0.04019  -1.05803   0.48548  -0.29809   0.06826
  18        2PX         0.54236   0.02127   0.12407   0.01171   0.10510
  19        2PY        -0.28579  -0.03793   0.16768  -0.02813  -0.39496
  20        2PZ        -0.00259   0.16595   0.45633  -0.27673   0.07164
  21        3S         -0.49554   3.86772  -9.10652  -0.02903  -2.32610
  22        3PX        -0.77567  -0.05512   0.43294   0.05909  -0.59646
  23        3PY         1.40177  -0.02373  -0.30323  -0.21403   1.97848
  24        3PZ         0.10608  -1.83065   3.61691   0.73789   1.08551
  25        4XX         0.00476   0.00803  -0.03966   0.04647  -0.00074
  26        4YY         0.00796  -0.15793   0.20571  -0.07329   0.04771
  27        4ZZ         0.00883   0.04127  -0.11638  -0.12864  -0.04382
  28        4XY        -0.00306  -0.10099   0.11574  -0.07084   0.01872
  29        4XZ        -0.00657   0.00360  -0.01339   0.00257  -0.08180
  30        4YZ        -0.00193  -0.00362   0.01461   0.00509  -0.11920
  31 3   C  1S          0.00104  -0.03989  -0.05499  -0.07802  -0.00198
  32        2S         -0.00440  -0.99447  -0.41730  -0.42229  -0.04705
  33        2PX        -0.28830   0.00458  -0.14856  -0.00648   0.38069
  34        2PY         0.45792  -0.01023  -0.15985  -0.00880  -0.11120
  35        2PZ         0.03948  -0.18203   0.34580   0.31407   0.08909
  36        3S         -0.20390   3.94712  10.49331   1.99153   1.80713
  37        3PX         1.14114  -0.01919  -0.50434  -0.08060  -1.95947
  38        3PY        -0.75514   0.03866   0.03941   0.01839   0.81948
  39        3PZ        -0.32869   1.78795   3.99705  -0.30827   0.53489
  40        4XX        -0.00676  -0.14585  -0.19063  -0.10325  -0.03404
  41        4YY         0.00527   0.00551   0.04150   0.04903   0.01220
  42        4ZZ        -0.00815   0.03108   0.08148  -0.12356   0.01284
  43        4XY        -0.00823  -0.10012  -0.12401  -0.08979  -0.02417
  44        4XZ        -0.00451  -0.00277  -0.02278  -0.00322  -0.10103
  45        4YZ        -0.00106   0.00179   0.00051   0.00067  -0.08478
  46 4   H  1S         -0.11897  -0.20149   0.41596  -0.38736  -0.33692
  47        2S         -0.72701   0.03105  -0.08622   0.15224  -0.58886
  48 5   H  1S          0.13673  -0.17009   0.14571  -0.41579   0.39537
  49        2S          1.13833  -0.08525  -0.26133  -0.15194   0.57739
  50 6   H  1S         -0.15427  -0.14298  -0.23873  -0.41328   0.27782
  51        2S         -0.77088  -0.06771   0.26113  -0.19977   0.64063
  52 7   H  1S          0.06671  -0.17632  -0.24272  -0.42585  -0.38590
  53        2S          0.65257  -0.00701  -0.07736  -0.29469  -0.57877
                          31        32        33        34        35
                           V         V         V         V         V
     Eigenvalues --     0.00000   0.00000   0.00000   0.00000   0.00000
   1 1   C  1S         -0.00552   0.00624   0.00274   0.00060   0.01405
   2        2S         -0.03122   0.01191   0.03148   0.07379   0.29395
   3        2PX         0.00044   0.27652   0.36326   0.00355   0.01634
   4        2PY         0.06881   0.25572  -0.36032  -0.00458   0.02151
   5        2PZ         0.10848   0.04411  -0.14586  -0.74378  -0.01363
   6        3S          0.28838   0.29030  -0.29606  -0.16539  -1.11606
   7        3PX        -0.23377  -0.66053  -0.63833  -0.04364  -0.06480
   8        3PY         0.11127  -0.58135   0.53433  -0.01110   0.01989
   9        3PZ        -1.64348  -0.83625   2.69659   0.87195   0.06713
  10        4XX         0.00263  -0.00042  -0.00647  -0.00897   0.04466
  11        4YY        -0.01036  -0.00149   0.01504   0.01972   0.04365
  12        4ZZ        -0.01475   0.01038   0.00234   0.00383  -0.04362
  13        4XY        -0.00115   0.00201  -0.00198  -0.00103  -0.36637
  14        4XZ         0.11454   0.06386   0.03916  -0.00474  -0.00286
  15        4YZ         0.11619  -0.07085   0.02949  -0.00867  -0.00968
  16 2   C  1S         -0.00812   0.00401   0.01567  -0.02417  -0.01986
  17        2S         -0.08447   0.04474   0.07484   1.00162  -0.10070
  18        2PX         0.21676  -0.17859  -0.53020  -0.01628   0.00569
  19        2PY         0.68913  -0.78620   0.01122  -0.04578  -0.02834
  20        2PZ        -0.07795  -0.00225   0.09564  -0.59993   0.02769
  21        3S          1.43597   0.22767  -2.03668  -1.90193   0.52148
  22        3PX        -0.15584   0.16823   0.81599   0.02004   0.01282
  23        3PY        -1.40581   1.69697   0.05216   0.20346  -0.08142
  24        3PZ        -0.46418  -0.19883   0.79458   0.69344  -0.20464
  25        4XX        -0.00675   0.01132  -0.00758   0.10885  -0.29711
  26        4YY        -0.02323  -0.01115   0.04177   0.10898   0.36735
  27        4ZZ         0.01738   0.01597  -0.02864  -0.09033  -0.08003
  28        4XY        -0.00341  -0.01486   0.02347  -0.00660   0.52705
  29        4XZ        -0.04932   0.00595  -0.06332   0.00320   0.00531
  30        4YZ        -0.11429   0.09218  -0.08685   0.00806   0.01235
  31 3   C  1S          0.00619   0.00531  -0.00870   0.02620  -0.01802
  32        2S          0.01974   0.05493  -0.09132  -1.00317  -0.10914
  33        2PX        -0.69506  -0.73428  -0.07277   0.01575   0.00159
  34        2PY        -0.20710  -0.19551   0.57399   0.00170   0.00022
  35        2PZ        -0.06818   0.00327   0.07627  -0.61476  -0.05456
  36        3S         -1.32567  -0.74250   2.32823   1.87539   0.66972
  37        3PX         1.34579   1.51737   0.33137   0.04109   0.02654
  38        3PY         0.10354   0.17376  -0.83427  -0.00569  -0.01684
  39        3PZ        -0.52123  -0.42946   0.88364   0.71036   0.21599
  40        4XX         0.02383   0.01282  -0.04189  -0.11942   0.37645
  41        4YY        -0.00949  -0.00077   0.00737  -0.10056  -0.30661
  42        4ZZ        -0.01313  -0.00835   0.02077   0.09708  -0.07562
  43        4XY         0.01750   0.00606  -0.02670  -0.00677   0.53365
  44        4XZ        -0.11104  -0.08297  -0.08434   0.00434   0.00330
  45        4YZ        -0.04958  -0.00314  -0.05964   0.00234   0.00735
  46 4   H  1S         -0.32181   0.26278  -0.27236  -0.05319  -0.21535
  47        2S          0.89528  -0.94531   0.27851   0.13985   0.13602
  48 5   H  1S          0.34816  -0.34749   0.37948  -0.11070  -0.28978
  49        2S         -1.14332   1.26463  -0.28014   0.48280   0.07167
  50 6   H  1S          0.36935   0.28481   0.26735   0.02742  -0.21085
  51        2S         -0.99925  -1.01049  -0.62825  -0.22816   0.04418
  52 7   H  1S         -0.29672  -0.27593  -0.36151   0.05532  -0.18351
  53        2S          0.88080   0.88468   0.66234  -0.17881   0.07274
                          36        37        38        39        40
                           V         V         V         V         V
     Eigenvalues --     0.00000   0.00000   0.00000   0.00000   0.00000
   1 1   C  1S         -0.00005   0.00025   0.00813  -0.00115   0.00346
   2        2S          0.05547  -0.00052   0.06861  -0.04066   0.02765
   3        2PX         0.00003  -0.05965  -0.00918   0.18187  -0.01787
   4        2PY        -0.00780   0.01245  -0.00163  -0.18648   0.04040
   5        2PZ        -0.01280  -0.06787   0.32287  -0.01104  -0.02305
   6        3S         -0.25569   0.06245  -1.15553  -0.09394  -0.35047
   7        3PX        -0.00402   0.18547   0.18458   0.05411  -0.51959
   8        3PY         0.04741  -0.19713  -0.23462  -0.04458   0.53576
   9        3PZ         0.08110   0.39284   6.18440  -0.27223   0.40698
  10        4XX         0.00688  -0.00021   0.01099  -0.00044  -0.00023
  11        4YY         0.00731   0.00044   0.00854  -0.00240   0.00316
  12        4ZZ        -0.00861   0.00423   0.01661  -0.00814  -0.00737
  13        4XY         0.72522   0.01977   0.04459  -0.02916  -0.00864
  14        4XZ         0.00218   0.63333   0.01849   0.23913   0.50176
  15        4YZ         0.00375   0.63198   0.00387   0.25090   0.49049
  16 2   C  1S          0.00744   0.00208   0.08172  -0.00763  -0.00569
  17        2S         -0.02690  -0.05627   0.36286  -0.02126  -0.00400
  18        2PX        -0.00248  -0.07468   0.04327  -0.01726  -0.14836
  19        2PY         0.01573  -0.05081  -0.12137  -0.11548  -0.07925
  20        2PZ         0.01197   0.02701  -0.06433   0.03012   0.06291
  21        3S         -0.08138  -0.29346  -5.55695   0.36961  -0.02502
  22        3PX        -0.00218  -0.15556   0.09919  -0.08559   0.31347
  23        3PY        -0.02342   0.27124   0.90760  -0.25000  -0.93255
  24        3PZ        -0.08703   0.17754   2.94975  -0.20126  -0.06325
  25        4XX         0.24550   0.01093   0.03678  -0.01405  -0.00880
  26        4YY        -0.23621  -0.00947  -0.00065   0.00986   0.00324
  27        4ZZ         0.02222  -0.01088   0.02171  -0.00190  -0.00067
  28        4XY         0.37307  -0.00747  -0.01200  -0.00007   0.01214
  29        4XZ        -0.00327   0.48093  -0.03427   0.49454  -0.36232
  30        4YZ        -0.00565   0.60399  -0.03326  -0.55367   0.02737
  31 3   C  1S          0.00977   0.00289  -0.04809   0.00127  -0.00343
  32        2S         -0.03234   0.03414  -0.07932   0.01647   0.00949
  33        2PX        -0.00533   0.06967   0.01481   0.15670   0.12873
  34        2PY        -0.00144   0.11410  -0.00487   0.02078   0.16281
  35        2PZ         0.00420   0.03013  -0.10685   0.00250   0.05488
  36        3S          0.00283   0.20412   5.20267  -0.19880   0.49700
  37        3PX         0.00201  -0.20871  -0.62274   0.07837   0.65643
  38        3PY        -0.03729   0.18785   0.06914   0.08142  -0.34673
  39        3PZ         0.16638   0.09647   3.78755  -0.07045   0.18377
  40        4XX        -0.23879  -0.01584   0.00266   0.01838  -0.00201
  41        4YY         0.24627   0.01266   0.01001  -0.01397  -0.00124
  42        4ZZ         0.02349   0.01000  -0.00658  -0.00230   0.00294
  43        4XY         0.37178  -0.00978   0.01741   0.00316   0.00325
  44        4XZ        -0.00235   0.60036  -0.02547  -0.53590   0.00579
  45        4YZ        -0.00151   0.47991  -0.02821   0.49282  -0.35663
  46 4   H  1S          0.07540  -0.22527  -0.08802   0.28644   0.31015
  47        2S          0.05253  -0.03654  -0.30052   0.00077   0.22488
  48 5   H  1S          0.12254   0.23873   0.05164  -0.32672  -0.34268
  49        2S          0.03815   0.02051   0.79050  -0.04428  -0.29339
  50 6   H  1S          0.09584   0.24853   0.14821  -0.36571  -0.27971
  51        2S          0.06585   0.00658   0.66169   0.12754  -0.15860
  52 7   H  1S          0.08695  -0.24433   0.05163   0.36407   0.24275
  53        2S          0.09674   0.03588   0.29029  -0.12392   0.13085
                          41        42        43        44        45
                           V         V         V         V         V
     Eigenvalues --     0.00000   0.00000   0.00000   0.00000   0.00000
   1 1   C  1S         -0.01117   0.00178  -0.05333   0.00136   0.00110
   2        2S         -0.18612   0.01597  -0.20737   0.00152   0.03750
   3        2PX        -0.00920   0.00470  -0.05690  -0.00504   0.01850
   4        2PY        -0.00264   0.01420  -0.00727   0.00198  -0.03760
   5        2PZ         0.02629   0.06222   0.00874  -0.05428   0.03269
[...]
 IR Inten    --      0.0000                 0.0000                 0.0000
  Atom  AN      X      Y      Z        X      Y      Z        X      Y      Z
     1   6     0.07   0.05  -0.00     0.02   0.01   0.01     0.00  -0.01  -0.04
     2   6    -0.03  -0.01  -0.01    -0.10  -0.04   0.01    -0.01   0.05  -0.09
     3   6    -0.10  -0.14  -0.01     0.01   0.02  -0.01     0.00  -0.01   0.00
     4   1     0.08   0.03  -0.04     0.73   0.19  -0.01     0.13  -0.47   0.69
     5   1     0.07   0.04   0.10     0.09   0.03   0.15    -0.02   0.18   0.30
     6   1     0.28   0.62   0.23     0.06   0.33  -0.08     0.13  -0.05   0.23
     7   1     0.25   0.58  -0.13    -0.12  -0.50  -0.09    -0.15  -0.01   0.23
                     10                     11                     12
                      A                      A                      A
 Frequencies --   1558.9894              2103.6454              2144.6384
 Red. masses --      1.2166                 1.3719                 3.2352
 Frc consts  --      1.7421                 3.5771                 8.7671
 IR Inten    --      0.0000                 0.0000                 0.0000
  Atom  AN      X      Y      Z        X      Y      Z        X      Y      Z
     1   6    -0.01   0.01  -0.05     0.00   0.00  -0.14    -0.01  -0.00   0.35
     2   6     0.00  -0.02   0.08     0.02  -0.06  -0.01     0.01  -0.05  -0.17
     3   6     0.01   0.01  -0.09    -0.01  -0.00   0.10     0.01  -0.00  -0.22
     4   1     0.02   0.21  -0.20    -0.16   0.79   0.54    -0.20   0.67   0.49
     5   1    -0.01  -0.08  -0.08    -0.00  -0.07   0.06     0.00  -0.02   0.00
     6   1     0.37  -0.07   0.50    -0.09  -0.00   0.03     0.16  -0.09  -0.07
     7   1    -0.43   0.04   0.54     0.08  -0.01   0.02    -0.14   0.10  -0.04
                     13                     14                     15
                      A                      A                      A
 Frequencies --   3240.3170              3347.8552              3948.6791
 Red. masses --      1.0804                 1.1043                 1.0847
 Frc consts  --      6.6833                 7.2921                 9.9650
 IR Inten    --      0.0000                 0.0000                 0.0000
  Atom  AN      X      Y      Z        X      Y      Z        X      Y      Z
     1   6    -0.00   0.00   0.01     0.00   0.00  -0.01     0.00  -0.00   0.00
     2   6    -0.00  -0.00  -0.00     0.00  -0.00   0.00     0.01  -0.08   0.02
     3   6    -0.04   0.02  -0.07    -0.08   0.02   0.04    -0.00  -0.00  -0.00
     4   1     0.02  -0.00  -0.00    -0.01  -0.00   0.00    -0.01   0.02   0.00
     5   1    -0.01  -0.00  -0.00     0.01   0.00  -0.00    -0.15   0.94  -0.30
     6   1    -0.22   0.06   0.13     0.78  -0.22  -0.52    -0.00   0.01   0.00
     7   1     0.75  -0.25   0.54     0.18  -0.07   0.15    -0.00  -0.01   0.00

 -------------------
 - Thermochemistry -
 -------------------
 Temperature   298.150 Kelvin.  Pressure      1.00000 Atm.
 Atom     1 has atomic number  6 and mass  12.00000
 Atom     2 has atomic number  6 and mass  12.00000
 Atom     3 has atomic number  6 and mass  12.00000
 Atom     4 has atomic number  1 and mass   1.00783
 Atom     5 has atomic number  1 and mass   1.00783
 Atom     6 has atomic number  1 and mass   1.00783
 Atom     7 has atomic number  1 and mass   1.00783
 Molecular mass:    40.03130 amu.
 Principal axes and moments of inertia in atomic units:
                           1         2         3
     Eigenvalues --    13.84668 201.23396 206.72592
           X            0.00252  -0.53102   0.84736
           Y            0.01024   0.84733   0.53097
           Z            0.99994  -0.00734  -0.00757
 This molecule is an asymmetric top.
 Rotational symmetry number  1.
 Rotational temperatures (Kelvin)      6.25521     0.43041     0.41898
 Rotational constants (GHZ):         130.33750     8.96837     8.73012
    1 imaginary frequencies ignored.
 Zero-point vibrational energy     147510.5 (Joules/Mol)
                                   35.25585 (Kcal/Mol)
 Warning -- explicit consideration of   1 degrees of freedom as
           vibrations may cause significant error
 Vibrational temperatures:    706.90  1195.76  1385.10  1527.25  1589.08
          (Kelvin)           1659.15  1758.83  2145.26  2243.04  3026.68
                             3085.66  4662.09  4816.82  5681.27
 
 Zero-point correction=                           0.056184 (Hartree/Particle)
 Thermal correction to Energy=                    0.059458
 Thermal correction to Enthalpy=                  0.060402
 Thermal correction to Gibbs Free Energy=         0.031625
 Sum of electronic and zero-point Energies=           -115.440121
 Sum of electronic and thermal Energies=              -115.436847
 Sum of electronic and thermal Enthalpies=            -115.435903
 Sum of electronic and thermal Free Energies=         -115.464680
 
                     E (Thermal)             CV                S
                      KCal/Mol        Cal/Mol-Kelvin    Cal/Mol-Kelvin
 Total                   37.310              9.424             60.566
 Electronic               0.000              0.000              1.377
 Translational            0.889              2.981             36.989
 Rotational               0.889              2.981             20.982
 Vibrational             35.533              3.462              1.217
 Vibration     1          0.847              1.269              0.680
                       Q            Log10(Q)             Ln(Q)
 Total Bot       0.283989D-14        -14.546699        -33.495012
 Total V=0       0.197706D+12         11.296021         26.010049
 Vib (Bot)       0.166016D-25        -25.779849        -59.360296
 Vib (Bot)    1  0.337082D+00         -0.472264         -1.087428
 Vib (V=0)       0.115577D+01          0.062871          0.144766
 Vib (V=0)    1  0.110301D+01          0.042581          0.098045
 Electronic      0.200000D+01          0.301030          0.693147
 Translational   0.995528D+07          6.998053         16.113613
 Rotational      0.859145D+04          3.934066          9.058523
 -------------------------------------------------------------------
 Center     Atomic                   Forces (Hartrees/Bohr)
 Number     Number              X              Y              Z
 -------------------------------------------------------------------
      1        6           0.010217905    0.019558949    0.102623219
      2        6          -0.028602140    0.098716723   -0.067117564
      3        6          -0.009470431    0.003425510   -0.086303504
      4        1           0.016704458   -0.076870528   -0.021864337
      5        1           0.005480301   -0.041117932    0.051391047
      6        1           0.007369677   -0.000244243    0.011296532
      7        1          -0.001699769   -0.003468480    0.009974608
 -------------------------------------------------------------------
 Cartesian Forces:  Max     0.102623219 RMS     0.046270613
 Z-matrix is all fixed cartesians, so copy forces.
 Force constants in Cartesian coordinates: 
                1             2             3             4             5 
      1  0.120055D+00
      2  0.313167D-01  0.131476D+00
      3 -0.228352D-01 -0.563373D-03  0.138330D+01
      4 -0.673156D-01 -0.251357D-01 -0.233067D-01  0.165555D+00
      5 -0.203251D-01 -0.119436D+00 -0.517329D-02 -0.611440D-01  0.714947D+00
      6 -0.140070D-01 -0.178259D-01 -0.497530D+00  0.343948D-01 -0.918697D-01
      7 -0.859713D-01 -0.208503D-01  0.561962D-01  0.425050D-02 -0.104244D-01
      8 -0.241604D-01 -0.306105D-01 -0.138083D-02 -0.517717D-02  0.121820D-01
      9  0.421564D-01  0.306706D-04 -0.797358D+00  0.427966D-02  0.990327D-03
     10  0.635988D-02  0.220835D-02  0.239607D-03 -0.686636D-01  0.151063D-01
     11  0.191227D-02  0.363449D-02 -0.433771D-02  0.158404D-01 -0.126910D+00
     12  0.509202D-02 -0.238897D-01 -0.195450D-01  0.788752D-02 -0.239143D-01
     13  0.937417D-02  0.840602D-02 -0.972143D-02 -0.320396D-01  0.739747D-01
     14  0.423029D-02 -0.446665D-03  0.607508D-02  0.748380D-01 -0.485262D+00
     15 -0.867580D-02  0.403587D-01 -0.234536D-01 -0.236717D-01  0.119853D+00
     16  0.886572D-02  0.237608D-02 -0.509255D-02 -0.501597D-03  0.609852D-03
     17  0.583900D-02  0.784290D-02 -0.127150D-01  0.176930D-02 -0.731396D-03
     18  0.229873D-01 -0.823479D-02 -0.224461D-01  0.334757D-03  0.939192D-03
     19  0.863259D-02  0.167887D-02  0.452006D-02 -0.128559D-02  0.220269D-02
     20  0.118727D-02  0.753978D-02  0.180951D-01 -0.990903D-03  0.521012D-02
     21 -0.247178D-01  0.101244D-01 -0.229665D-01  0.816014D-04 -0.825653D-03
                6             7             8             9            10 
      6  0.656673D+00
      7 -0.932631D-02  0.572830D+00
      8  0.213554D-02 -0.940335D-01  0.157649D+00
      9 -0.179866D-04 -0.585742D-01 -0.513733D-02  0.108927D+01
     10  0.126888D-01  0.277181D-02  0.162043D-02 -0.299042D-02  0.590045D-01
     11 -0.263595D-01  0.109833D-02 -0.126573D-02  0.843442D-03 -0.193071D-01
     12 -0.913467D-01 -0.154831D-02  0.104724D-02  0.569350D-03 -0.115600D-01
     13 -0.241772D-01  0.507540D-02 -0.211844D-02  0.360274D-02  0.640770D-03
     14  0.134229D+00  0.102330D-02 -0.100792D-02  0.235263D-03  0.642828D-03
     15 -0.707766D-01  0.122775D-02 -0.250146D-02 -0.110132D-02  0.221282D-02
     16  0.655396D-03 -0.263890D+00  0.620682D-01  0.137518D+00  0.199627D-02
     17  0.905019D-02  0.595365D-01 -0.619223D-01 -0.405286D-01  0.851858D-02
     18  0.289993D-02  0.140783D+00 -0.417563D-01 -0.143166D+00 -0.267701D-03
     19 -0.228483D-03 -0.235066D+00  0.618008D-01 -0.125992D+00 -0.210964D-02
     20 -0.936007D-02  0.636501D-01 -0.750246D-01  0.435662D-01 -0.878945D-02
     21  0.990824D-04 -0.128758D+00  0.475931D-01 -0.148197D+00 -0.323057D-03
               11            12            13            14            15 
     11  0.125975D+00
     12  0.400502D-01  0.971416D-01
     13  0.584503D-03 -0.256768D-03  0.170937D-01
     14 -0.161302D-02  0.614758D-02 -0.806402D-01  0.488113D+00
     15 -0.101638D-01  0.133446D-01  0.295669D-01 -0.146903D+00  0.821313D-01
     16  0.322553D-03  0.153989D-03 -0.280244D-02 -0.329028D-03  0.929994D-04
     17  0.108316D-02  0.267932D-03 -0.115682D-01 -0.497903D-03  0.168101D-02
     18 -0.166251D-03  0.114152D-03 -0.499641D-03 -0.789032D-04 -0.272588D-03
     19 -0.451035D-03  0.231554D-03  0.265801D-02  0.234787D-03 -0.753020D-03
     20 -0.903832D-03  0.291144D-03  0.113617D-01  0.714340D-03 -0.232504D-02
     21  0.133677D-03 -0.277981D-03  0.148538D-02  0.294394D-03  0.128161D-03
               16            17            18            19            20 
     16  0.274522D+00
     17 -0.715257D-01  0.471884D-01
     18 -0.147385D+00  0.458421D-01  0.150084D+00
     19 -0.181904D-01  0.743051D-02 -0.159522D-01  0.245361D+00
     20  0.647803D-02  0.703714D-02  0.345498D-02 -0.728967D-01  0.554270D-01
     21  0.140578D-01 -0.359762D-02  0.127862D-01  0.138174D+00 -0.537223D-01
               21 
     21  0.158428D+00
 Leave Link  716 at Thu Feb 11 16:23:47 2021, MaxMem=   458752000 cpu:               0.1 elap:               0.3
 (Enter /rds/general/project/gaussian-development/live/home/gaussiangdvJ05_pgi_18/gdv/l118.exe)
 TRJ-TRJ-TRJ-TRJ-TRJ-TRJ-TRJ-TRJ-TRJ-TRJ-TRJ-TRJ-TRJ-TRJ-TRJ-TRJ-TRJ-TRJ
          ******** Start new trajectory calculation ********
 Trajectory Number     1    Step Number     1

 Eigenvalues of Mass-weighted Force Constants in hartree/(bohr**2*amu):
    -0.10514436D-02     0.91351988D-02     0.26139128D-01     0.35072365D-01
     0.42640989D-01     0.46162970D-01     0.50324140D-01     0.56552405D-01
     0.84132304D-01     0.91976694D-01     0.16746980D+00     0.17406024D+00
     0.39734381D+00     0.42415517D+00     0.59005858D+00     0.00000000D+00
     0.00000000D+00     0.00000000D+00     0.00000000D+00     0.00000000D+00
     0.00000000D+00
 Get start point for trajectory     1

 Start point information 
 Time (fs)     0.000000
 EKin =       0.0000000; EPot =    -115.4963051; ETot =    -115.4963051 A.U.
 Angular momentum (instantaneous)
   JX =  0.0000000000D+00  JY =  0.0000000000D+00  JZ =  0.0000000000D+00
 Jtot =  0.0000000000D+00 H-BAR;  J (Quantum Number) =  0.0000000000D+00
 Total energy  -1.154963D+02 A.U.
 Total angular momentum   0.000000D+00 h-bar
 Cartesian coordinates: (bohr)
 I=    1 X=  -1.122587636208D-01 Y=  -3.472433455813D-02 Z=  -2.674117208174D-02
 I=    2 X=   6.157336312567D-02 Y=   1.060263626568D-02 Z=   2.529788043619D+00
 I=    3 X=   3.636252689784D-02 Y=  -1.597435594509D-03 Z=  -2.447448212305D+00
 I=    4 X=  -2.637675556578D-01 Y=   2.075317399965D+00 Z=   3.561733465174D+00
 I=    5 X=   3.119242801080D-01 Y=  -1.841476364446D+00 Z=   3.014638854851D+00
 I=    6 X=   1.688678578982D+00 Y=  -3.887172808423D-01 Z=  -3.583978636498D+00
 I=    7 X=  -1.566295302085D+00 Y=   4.611095649097D-01 Z=  -3.654397390804D+00
 MW cartesian velocity: (sqrt(amu)*bohr/sec)
 I=    1 X=   0.000000000000D+00 Y=   0.000000000000D+00 Z=   0.000000000000D+00
 I=    2 X=   0.000000000000D+00 Y=   0.000000000000D+00 Z=   0.000000000000D+00
 I=    3 X=   0.000000000000D+00 Y=   0.000000000000D+00 Z=   0.000000000000D+00
 I=    4 X=   0.000000000000D+00 Y=   0.000000000000D+00 Z=   0.000000000000D+00
 I=    5 X=   0.000000000000D+00 Y=   0.000000000000D+00 Z=   0.000000000000D+00
 I=    6 X=   0.000000000000D+00 Y=   0.000000000000D+00 Z=   0.000000000000D+00
 I=    7 X=   0.000000000000D+00 Y=   0.000000000000D+00 Z=   0.000000000000D+00
 TRJ-TRJ-TRJ-TRJ-TRJ-TRJ-TRJ-TRJ-TRJ-TRJ-TRJ-TRJ-TRJ-TRJ-TRJ-TRJ-TRJ-TRJ
 
 
 TRJ-TRJ-TRJ-TRJ-TRJ-TRJ-TRJ-TRJ-TRJ-TRJ-TRJ-TRJ-TRJ-TRJ-TRJ-TRJ-TRJ-TRJ
 Trajectory Number     1    Step Number     2

 Eigenvalues of Mass-weighted Force Constants in hartree/(bohr**2*amu):
    -0.10514436D-02     0.91351988D-02     0.26139128D-01     0.35072365D-01
     0.42640989D-01     0.46162970D-01     0.50324140D-01     0.56552405D-01
     0.84132304D-01     0.91976694D-01     0.16746980D+00     0.17406024D+00
     0.39734381D+00     0.42415517D+00     0.59005858D+00     0.00000000D+00
     0.00000000D+00     0.00000000D+00     0.00000000D+00     0.00000000D+00
     0.00000000D+00

 Summary information for step      2
 Time (fs)     0.000000
 EKin =       0.0000000; EPot =    -115.4963051; ETot =    -115.4963051 A.U.
 Angular momentum (instantaneous)
   JX =  0.0000000000D+00  JY =  0.0000000000D+00  JZ =  0.0000000000D+00
 Jtot =  0.0000000000D+00 H-BAR;  J (Quantum Number) =  0.0000000000D+00
 Total energy  -1.154963D+02 A.U.
 Total angular momentum   0.000000D+00 h-bar
 Cartesian coordinates: (bohr)
 I=    1 X=  -1.122587636208D-01 Y=  -3.472433455813D-02 Z=  -2.674117208174D-02
 I=    2 X=   6.157336312567D-02 Y=   1.060263626568D-02 Z=   2.529788043619D+00
 I=    3 X=   3.636252689784D-02 Y=  -1.597435594509D-03 Z=  -2.447448212305D+00
 I=    4 X=  -2.637675556578D-01 Y=   2.075317399965D+00 Z=   3.561733465174D+00
 I=    5 X=   3.119242801080D-01 Y=  -1.841476364446D+00 Z=   3.014638854851D+00
 I=    6 X=   1.688678578982D+00 Y=  -3.887172808423D-01 Z=  -3.583978636498D+00
 I=    7 X=  -1.566295302085D+00 Y=   4.611095649097D-01 Z=  -3.654397390804D+00
 MW cartesian velocity: (sqrt(amu)*bohr/sec)
 I=    1 X=   0.000000000000D+00 Y=   0.000000000000D+00 Z=   0.000000000000D+00
 I=    2 X=   0.000000000000D+00 Y=   0.000000000000D+00 Z=   0.000000000000D+00
 I=    3 X=   0.000000000000D+00 Y=   0.000000000000D+00 Z=   0.000000000000D+00
 I=    4 X=   0.000000000000D+00 Y=   0.000000000000D+00 Z=   0.000000000000D+00
 I=    5 X=   0.000000000000D+00 Y=   0.000000000000D+00 Z=   0.000000000000D+00
 I=    6 X=   0.000000000000D+00 Y=   0.000000000000D+00 Z=   0.000000000000D+00
 I=    7 X=   0.000000000000D+00 Y=   0.000000000000D+00 Z=   0.000000000000D+00


 Final analysis for traj   1
 Traj calculation does not meet the product criterion.


 Analysis of fragment    1

 Instantaneous rotational analysis:
 Q(CM): X=  0.554677475136D-17 Y=  0.970685581488D-17 Z=  0.665612970163D-16
 V(CM): X=  0.000000000000D+00 Y=  0.000000000000D+00 Z=  0.000000000000D+00
 Angular momentum in principle axes
   JX =  0.0000000000D+00  JY =  0.0000000000D+00  JZ =  0.0000000000D+00
 Jtot =  0.0000000000D+00  H-BAR;  J (Quantum Number) =  0.0000000000D+00
 Angular momentum in original axes
   JX =  0.0000000000D+00  JY =  0.0000000000D+00  JZ =  0.0000000000D+00
 Jtot =  0.0000000000D+00  H-BAR;  J (Quantum Number) =  0.0000000000D+00

 Etrn =  0.0000000000D+00 Erot =  0.0000000000D+00 Evib(kin) =  0.0000000000D+00 au
 Epot = -0.1154963051D+03 Etot = -0.1154963051D+03 au

 Trajectory summary for trajectory      1
 Energy/gradient evaluations            1
 Hessian evaluations                    1

 Trajectory summary
   Time (fs)   Kinetic (au)   Potent (au)   Delta E (au)     Delta A (h-bar)
     0.000000     0.0000000  -115.4963051     0.0000000     0.0000000000000000
                             Max Error =      0.0000000     0.0000000000000000
 Trajectory      1 has not met product criteria!


 -----------------------
 Summary of trajectories
 -----------------------

 Trajectory      1 did not finish in      1 cycles.
   Total time in trajectory      0.000 femtosec.


 TRJ-TRJ-TRJ-TRJ-TRJ-TRJ-TRJ-TRJ-TRJ-TRJ-TRJ-TRJ-TRJ-TRJ-TRJ-TRJ-TRJ-TRJ
 Leave Link  118 at Thu Feb 11 16:23:48 2021, MaxMem=   458752000 cpu:               0.0 elap:               0.6
 (Enter /rds/general/project/gaussian-development/live/home/gaussiangdvJ05_pgi_18/gdv/l202.exe)
                          Input orientation:                          
 ---------------------------------------------------------------------
 Center     Atomic      Atomic             Coordinates (Angstroms)
 Number     Number       Type             X           Y           Z
 ---------------------------------------------------------------------
      1          6           0       -0.059405   -0.018375   -0.014151
      2          6           0        0.032583    0.005611    1.338706
      3          6           0        0.019242   -0.000845   -1.295134
      4          1           0       -0.139580    1.098211    1.884788
      5          1           0        0.165063   -0.974467    1.595278
      6          1           0        0.893610   -0.205700   -1.896560
      7          1           0       -0.828848    0.244009   -1.933824
 ---------------------------------------------------------------------
                    Distance matrix (angstroms):
                    1          2          3          4          5
     1  C    0.000000
     2  C    1.356193   0.000000
     3  C    1.283515   2.633882   0.000000
     4  H    2.204351   1.233540   3.368242   0.000000
     5  H    1.885407   1.021730   3.053471   2.114856   0.000000
     6  H    2.118205   3.354544   1.080832   4.131133   3.648934
     7  H    2.084714   3.392396   1.089557   3.973229   3.863561
                    6          7
     6  H    0.000000
     7  H    1.780587   0.000000
 Symmetry turned off by external request.
 Stoichiometry    C3H4(1+,2)
 Framework group  C1[X(C3H4)]
 Deg. of freedom    15
 Full point group                 C1      NOp   1
 Rotational constants (GHZ):         130.3374974           8.9683730           8.7301158
 Leave Link  202 at Thu Feb 11 16:23:49 2021, MaxMem=   458752000 cpu:               0.0 elap:               0.3
 (Enter /rds/general/project/gaussian-development/live/home/gaussiangdvJ05_pgi_18/gdv/l9999.exe)

 This type of calculation cannot be archived.


 I DON'T EXACTLY UNDERSTAND WHAT YOU ARE SAYING,
 BUT YOU ARE ABSOLUTELY RIGHT.
     M.S.GORDON, IN A NDSU FACULTY MEETING
 Job cpu time:       0 days  0 hours  0 minutes 21.1 seconds.
 Elapsed time:       0 days  0 hours  0 minutes 21.3 seconds.
 File lengths (MBytes):  RWF=     32 Int=      0 D2E=      0 Chk=      7 Scr=      1
 Normal termination of Gaussian DV at Thu Feb 11 16:23:50 2021.
